 TITLE
GAUSSIAN              2 MOL ORBITALS     70 PRIMITIVES        1 NUCLEI
  Be   1    (CENTRE  1)   0.00000000  0.00000000  0.00000000  CHARGE =  4.0
CENTRE ASSIGNMENTS    1  1  1  1  1  1  1  1  1  1  1  1  1  1  1  1  1  1  1  1
CENTRE ASSIGNMENTS    1  1  1  1  1  1  1  1  1  1  1  1  1  1  1  1  1  1  1  1
CENTRE ASSIGNMENTS    1  1  1  1  1  1  1  1  1  1  1  1  1  1  1  1  1  1  1  1
CENTRE ASSIGNMENTS    1  1  1  1  1  1  1  1  1  1
TYPE ASSIGNMENTS      1  1  1  1  1  1  1  1  1  1  1  1  1  1  1  1  1  1  1  1
TYPE ASSIGNMENTS      1  1  1  1  1  2  3  4  2  3  4  2  3  4  2  3  4  2  3  4
TYPE ASSIGNMENTS      2  3  4  2  3  4  2  3  4  2  3  4  2  3  4  2  3  4  2  3
TYPE ASSIGNMENTS      4  2  3  4  2  3  4  2  3  4
EXPONENTS  0.2019954D+06 0.1031562D+06 0.5268047D+05 0.2690319D+05 0.1373909D+05
EXPONENTS  0.7016361D+04 0.3583159D+04 0.1829870D+04 0.9344891D+03 0.4772307D+03
EXPONENTS  0.2437151D+03 0.1244619D+03 0.6356100D+02 0.3245972D+02 0.1657673D+02
EXPONENTS  0.8465508D+01 0.4323218D+01 0.2207808D+01 0.1127497D+01 0.5757971D+00
EXPONENTS  0.2940516D+00 0.1501681D+00 0.7668877D-01 0.3916390D-01 0.2000046D-01
EXPONENTS  0.2437151D+03 0.2437151D+03 0.2437151D+03 0.1244619D+03 0.1244619D+03
EXPONENTS  0.1244619D+03 0.6356100D+02 0.6356100D+02 0.6356100D+02 0.3245972D+02
EXPONENTS  0.3245972D+02 0.3245972D+02 0.1657673D+02 0.1657673D+02 0.1657673D+02
EXPONENTS  0.8465508D+01 0.8465508D+01 0.8465508D+01 0.4323218D+01 0.4323218D+01
EXPONENTS  0.4323218D+01 0.2207808D+01 0.2207808D+01 0.2207808D+01 0.1127497D+01
EXPONENTS  0.1127497D+01 0.1127497D+01 0.5757971D+00 0.5757971D+00 0.5757971D+00
EXPONENTS  0.2940516D+00 0.2940516D+00 0.2940516D+00 0.1501681D+00 0.1501681D+00
EXPONENTS  0.1501681D+00 0.7668877D-01 0.7668877D-01 0.7668877D-01 0.3916390D-01
EXPONENTS  0.3916390D-01 0.3916390D-01 0.2000046D-01 0.2000046D-01 0.2000046D-01
MO    1     MO 0.0        OCC NO =    2.0000000  ORB. ENERGY =   -4.732670
  0.25498039D-01 -0.11852524D-01  0.31010250D-01  0.73835936D-02  0.34100720D-01
  0.33028591D-01  0.54949219D-01  0.71673431D-01  0.10301286D+00  0.14182201D+00
  0.19753797D+00  0.27098699D+00  0.36568493D+00  0.47562548D+00  0.57768527D+00
  0.62728887D+00  0.57267040D+00  0.38737199D+00  0.14414446D+00  0.17887378D-01
  0.32939115D-03 -0.22723005D-04  0.11500227D-04 -0.35875907D-05  0.57907185D-06
  0.00000000D+00  0.00000000D+00  0.00000000D+00  0.00000000D+00  0.00000000D+00
  0.00000000D+00  0.00000000D+00  0.00000000D+00  0.00000000D+00  0.00000000D+00
  0.00000000D+00  0.00000000D+00  0.00000000D+00  0.00000000D+00  0.00000000D+00
  0.00000000D+00  0.00000000D+00  0.00000000D+00  0.00000000D+00  0.00000000D+00
  0.00000000D+00  0.00000000D+00  0.00000000D+00  0.00000000D+00  0.00000000D+00
  0.00000000D+00  0.00000000D+00  0.00000000D+00  0.00000000D+00  0.00000000D+00
  0.00000000D+00  0.00000000D+00  0.00000000D+00  0.00000000D+00  0.00000000D+00
  0.00000000D+00  0.00000000D+00  0.00000000D+00  0.00000000D+00  0.00000000D+00
  0.00000000D+00  0.00000000D+00  0.00000000D+00  0.00000000D+00  0.00000000D+00
MO    2     MO 0.0        OCC NO =    2.0000000  ORB. ENERGY =   -0.309270
 -0.46469862D-02  0.21607928D-02 -0.56528132D-02 -0.13434830D-02 -0.62178442D-02
 -0.60163841D-02 -0.10021727D-01 -0.13064295D-01 -0.18803579D-01 -0.25900459D-01
 -0.36183520D-01 -0.49837128D-01 -0.67881441D-01 -0.89726101D-01 -0.11238434D+00
 -0.12894590D+00 -0.13206763D+00 -0.11800489D+00 -0.79051724D-01 -0.12692391D-01
  0.45298773D-01  0.63513887D-01  0.43710102D-01  0.11077584D-01  0.43627605D-03
  0.00000000D+00  0.00000000D+00  0.00000000D+00  0.00000000D+00  0.00000000D+00
  0.00000000D+00  0.00000000D+00  0.00000000D+00  0.00000000D+00  0.00000000D+00
  0.00000000D+00  0.00000000D+00  0.00000000D+00  0.00000000D+00  0.00000000D+00
  0.00000000D+00  0.00000000D+00  0.00000000D+00  0.00000000D+00  0.00000000D+00
  0.00000000D+00  0.00000000D+00  0.00000000D+00  0.00000000D+00  0.00000000D+00
  0.00000000D+00  0.00000000D+00  0.00000000D+00  0.00000000D+00  0.00000000D+00
  0.00000000D+00  0.00000000D+00  0.00000000D+00  0.00000000D+00  0.00000000D+00
  0.00000000D+00  0.00000000D+00  0.00000000D+00  0.00000000D+00  0.00000000D+00
  0.00000000D+00  0.00000000D+00  0.00000000D+00  0.00000000D+00  0.00000000D+00
END DATA
 TOTAL ENERGY =      -14.573022790254 THE VIRIAL(-V/T)=   2.00000007
