 TITLE
GAUSSIAN             21 MOL ORBITALS    528 PRIMITIVES       12 NUCLEI
  C    1    (CENTRE  1)   0.00000000  0.00000000  2.62011856  CHARGE =  6.0
  C    2    (CENTRE  2)   0.00000000  2.26908857  1.31005923  CHARGE =  6.0
  C    3    (CENTRE  3)   0.00000000  2.26908857 -1.31005923  CHARGE =  6.0
  C    4    (CENTRE  4)   0.00000000 -0.00000000 -2.62011856  CHARGE =  6.0
  C    5    (CENTRE  5)  -0.00000000 -2.26908857 -1.31005923  CHARGE =  6.0
  C    6    (CENTRE  6)  -0.00000000 -2.26908857  1.31005923  CHARGE =  6.0
  H    7    (CENTRE  7)  -0.00000000  0.00000000  4.64710019  CHARGE =  1.0
  H    8    (CENTRE  8)  -0.00000000  4.02450612  2.32354991  CHARGE =  1.0
  H    9    (CENTRE  9)   0.00000000  4.02450612 -2.32354991  CHARGE =  1.0
  H   10    (CENTRE 10)   0.00000000  0.00000000 -4.64710019  CHARGE =  1.0
  H   11    (CENTRE 11)  -0.00000000 -4.02450612 -2.32354991  CHARGE =  1.0
  H   12    (CENTRE 12)  -0.00000000 -4.02450612  2.32354991  CHARGE =  1.0
CENTRE ASSIGNMENTS    1  1  1  1  1  1  1  1  1  1  1  1  1  1  1  1  1  1  1  1
CENTRE ASSIGNMENTS    1  1  1  1  1  1  1  1  1  1  1  1  1  1  1  1  1  1  1  1
CENTRE ASSIGNMENTS    1  1  1  1  1  1  1  1  1  1  1  1  1  1  1  1  1  1  1  1
CENTRE ASSIGNMENTS    1  1  1  1  1  1  1  1  2  2  2  2  2  2  2  2  2  2  2  2
CENTRE ASSIGNMENTS    2  2  2  2  2  2  2  2  2  2  2  2  2  2  2  2  2  2  2  2
CENTRE ASSIGNMENTS    2  2  2  2  2  2  2  2  2  2  2  2  2  2  2  2  2  2  2  2
CENTRE ASSIGNMENTS    2  2  2  2  2  2  2  2  2  2  2  2  2  2  2  2  3  3  3  3
CENTRE ASSIGNMENTS    3  3  3  3  3  3  3  3  3  3  3  3  3  3  3  3  3  3  3  3
CENTRE ASSIGNMENTS    3  3  3  3  3  3  3  3  3  3  3  3  3  3  3  3  3  3  3  3
CENTRE ASSIGNMENTS    3  3  3  3  3  3  3  3  3  3  3  3  3  3  3  3  3  3  3  3
CENTRE ASSIGNMENTS    3  3  3  3  4  4  4  4  4  4  4  4  4  4  4  4  4  4  4  4
CENTRE ASSIGNMENTS    4  4  4  4  4  4  4  4  4  4  4  4  4  4  4  4  4  4  4  4
CENTRE ASSIGNMENTS    4  4  4  4  4  4  4  4  4  4  4  4  4  4  4  4  4  4  4  4
CENTRE ASSIGNMENTS    4  4  4  4  4  4  4  4  4  4  4  4  5  5  5  5  5  5  5  5
CENTRE ASSIGNMENTS    5  5  5  5  5  5  5  5  5  5  5  5  5  5  5  5  5  5  5  5
CENTRE ASSIGNMENTS    5  5  5  5  5  5  5  5  5  5  5  5  5  5  5  5  5  5  5  5
CENTRE ASSIGNMENTS    5  5  5  5  5  5  5  5  5  5  5  5  5  5  5  5  5  5  5  5
CENTRE ASSIGNMENTS    6  6  6  6  6  6  6  6  6  6  6  6  6  6  6  6  6  6  6  6
CENTRE ASSIGNMENTS    6  6  6  6  6  6  6  6  6  6  6  6  6  6  6  6  6  6  6  6
CENTRE ASSIGNMENTS    6  6  6  6  6  6  6  6  6  6  6  6  6  6  6  6  6  6  6  6
CENTRE ASSIGNMENTS    6  6  6  6  6  6  6  6  7  7  7  7  7  7  7  7  7  7  7  7
CENTRE ASSIGNMENTS    7  7  7  7  7  7  7  7  8  8  8  8  8  8  8  8  8  8  8  8
CENTRE ASSIGNMENTS    8  8  8  8  8  8  8  8  9  9  9  9  9  9  9  9  9  9  9  9
CENTRE ASSIGNMENTS    9  9  9  9  9  9  9  9 10 10 10 10 10 10 10 10 10 10 10 10
CENTRE ASSIGNMENTS   10 10 10 10 10 10 10 10 11 11 11 11 11 11 11 11 11 11 11 11
CENTRE ASSIGNMENTS   11 11 11 11 11 11 11 11 12 12 12 12 12 12 12 12 12 12 12 12
CENTRE ASSIGNMENTS   12 12 12 12 12 12 12 12
TYPE ASSIGNMENTS      1  1  1  1  1  1  1  1  1  1  1  1  1  1  1  1  1  1  1  1
TYPE ASSIGNMENTS      1  1  1  2  3  4  2  3  4  2  3  4  2  3  4  2  3  4  2  3
TYPE ASSIGNMENTS      4  2  3  4  2  3  4  2  3  4  2  3  4  2  3  4  2  3  4  2
TYPE ASSIGNMENTS      3  4  2  3  4  2  3  4  1  1  1  1  1  1  1  1  1  1  1  1
TYPE ASSIGNMENTS      1  1  1  1  1  1  1  1  1  1  1  2  3  4  2  3  4  2  3  4
TYPE ASSIGNMENTS      2  3  4  2  3  4  2  3  4  2  3  4  2  3  4  2  3  4  2  3
TYPE ASSIGNMENTS      4  2  3  4  2  3  4  2  3  4  2  3  4  2  3  4  1  1  1  1
TYPE ASSIGNMENTS      1  1  1  1  1  1  1  1  1  1  1  1  1  1  1  1  1  1  1  2
TYPE ASSIGNMENTS      3  4  2  3  4  2  3  4  2  3  4  2  3  4  2  3  4  2  3  4
TYPE ASSIGNMENTS      2  3  4  2  3  4  2  3  4  2  3  4  2  3  4  2  3  4  2  3
TYPE ASSIGNMENTS      4  2  3  4  1  1  1  1  1  1  1  1  1  1  1  1  1  1  1  1
TYPE ASSIGNMENTS      1  1  1  1  1  1  1  2  3  4  2  3  4  2  3  4  2  3  4  2
TYPE ASSIGNMENTS      3  4  2  3  4  2  3  4  2  3  4  2  3  4  2  3  4  2  3  4
TYPE ASSIGNMENTS      2  3  4  2  3  4  2  3  4  2  3  4  1  1  1  1  1  1  1  1
TYPE ASSIGNMENTS      1  1  1  1  1  1  1  1  1  1  1  1  1  1  1  2  3  4  2  3
TYPE ASSIGNMENTS      4  2  3  4  2  3  4  2  3  4  2  3  4  2  3  4  2  3  4  2
TYPE ASSIGNMENTS      3  4  2  3  4  2  3  4  2  3  4  2  3  4  2  3  4  2  3  4
TYPE ASSIGNMENTS      1  1  1  1  1  1  1  1  1  1  1  1  1  1  1  1  1  1  1  1
TYPE ASSIGNMENTS      1  1  1  2  3  4  2  3  4  2  3  4  2  3  4  2  3  4  2  3
TYPE ASSIGNMENTS      4  2  3  4  2  3  4  2  3  4  2  3  4  2  3  4  2  3  4  2
TYPE ASSIGNMENTS      3  4  2  3  4  2  3  4  1  1  1  1  1  1  1  1  1  1  1  1
TYPE ASSIGNMENTS      1  1  1  1  1  1  1  1  1  1  1  1  1  1  1  1  1  1  1  1
TYPE ASSIGNMENTS      1  1  1  1  1  1  1  1  1  1  1  1  1  1  1  1  1  1  1  1
TYPE ASSIGNMENTS      1  1  1  1  1  1  1  1  1  1  1  1  1  1  1  1  1  1  1  1
TYPE ASSIGNMENTS      1  1  1  1  1  1  1  1  1  1  1  1  1  1  1  1  1  1  1  1
TYPE ASSIGNMENTS      1  1  1  1  1  1  1  1  1  1  1  1  1  1  1  1  1  1  1  1
TYPE ASSIGNMENTS      1  1  1  1  1  1  1  1
EXPONENTS  0.2019954D+06 0.1031562D+06 0.5268047D+05 0.2690319D+05 0.1373909D+05
EXPONENTS  0.7016361D+04 0.3583159D+04 0.1829870D+04 0.9344891D+03 0.4772307D+03
EXPONENTS  0.2437151D+03 0.1244619D+03 0.6356100D+02 0.3245972D+02 0.1657673D+02
EXPONENTS  0.8465508D+01 0.4323218D+01 0.2207808D+01 0.1127497D+01 0.5757971D+00
EXPONENTS  0.2940516D+00 0.1501681D+00 0.7668877D-01 0.4772307D+03 0.4772307D+03
EXPONENTS  0.4772307D+03 0.2437151D+03 0.2437151D+03 0.2437151D+03 0.1244619D+03
EXPONENTS  0.1244619D+03 0.1244619D+03 0.6356100D+02 0.6356100D+02 0.6356100D+02
EXPONENTS  0.3245972D+02 0.3245972D+02 0.3245972D+02 0.1657673D+02 0.1657673D+02
EXPONENTS  0.1657673D+02 0.8465508D+01 0.8465508D+01 0.8465508D+01 0.4323218D+01
EXPONENTS  0.4323218D+01 0.4323218D+01 0.2207808D+01 0.2207808D+01 0.2207808D+01
EXPONENTS  0.1127497D+01 0.1127497D+01 0.1127497D+01 0.5757971D+00 0.5757971D+00
EXPONENTS  0.5757971D+00 0.2940516D+00 0.2940516D+00 0.2940516D+00 0.1501681D+00
EXPONENTS  0.1501681D+00 0.1501681D+00 0.7668877D-01 0.7668877D-01 0.7668877D-01
EXPONENTS  0.3916390D-01 0.3916390D-01 0.3916390D-01 0.2019954D+06 0.1031562D+06
EXPONENTS  0.5268047D+05 0.2690319D+05 0.1373909D+05 0.7016361D+04 0.3583159D+04
EXPONENTS  0.1829870D+04 0.9344891D+03 0.4772307D+03 0.2437151D+03 0.1244619D+03
EXPONENTS  0.6356100D+02 0.3245972D+02 0.1657673D+02 0.8465508D+01 0.4323218D+01
EXPONENTS  0.2207808D+01 0.1127497D+01 0.5757971D+00 0.2940516D+00 0.1501681D+00
EXPONENTS  0.7668877D-01 0.4772307D+03 0.4772307D+03 0.4772307D+03 0.2437151D+03
EXPONENTS  0.2437151D+03 0.2437151D+03 0.1244619D+03 0.1244619D+03 0.1244619D+03
EXPONENTS  0.6356100D+02 0.6356100D+02 0.6356100D+02 0.3245972D+02 0.3245972D+02
EXPONENTS  0.3245972D+02 0.1657673D+02 0.1657673D+02 0.1657673D+02 0.8465508D+01
EXPONENTS  0.8465508D+01 0.8465508D+01 0.4323218D+01 0.4323218D+01 0.4323218D+01
EXPONENTS  0.2207808D+01 0.2207808D+01 0.2207808D+01 0.1127497D+01 0.1127497D+01
EXPONENTS  0.1127497D+01 0.5757971D+00 0.5757971D+00 0.5757971D+00 0.2940516D+00
EXPONENTS  0.2940516D+00 0.2940516D+00 0.1501681D+00 0.1501681D+00 0.1501681D+00
EXPONENTS  0.7668877D-01 0.7668877D-01 0.7668877D-01 0.3916390D-01 0.3916390D-01
EXPONENTS  0.3916390D-01 0.2019954D+06 0.1031562D+06 0.5268047D+05 0.2690319D+05
EXPONENTS  0.1373909D+05 0.7016361D+04 0.3583159D+04 0.1829870D+04 0.9344891D+03
EXPONENTS  0.4772307D+03 0.2437151D+03 0.1244619D+03 0.6356100D+02 0.3245972D+02
EXPONENTS  0.1657673D+02 0.8465508D+01 0.4323218D+01 0.2207808D+01 0.1127497D+01
EXPONENTS  0.5757971D+00 0.2940516D+00 0.1501681D+00 0.7668877D-01 0.4772307D+03
EXPONENTS  0.4772307D+03 0.4772307D+03 0.2437151D+03 0.2437151D+03 0.2437151D+03
EXPONENTS  0.1244619D+03 0.1244619D+03 0.1244619D+03 0.6356100D+02 0.6356100D+02
EXPONENTS  0.6356100D+02 0.3245972D+02 0.3245972D+02 0.3245972D+02 0.1657673D+02
EXPONENTS  0.1657673D+02 0.1657673D+02 0.8465508D+01 0.8465508D+01 0.8465508D+01
EXPONENTS  0.4323218D+01 0.4323218D+01 0.4323218D+01 0.2207808D+01 0.2207808D+01
EXPONENTS  0.2207808D+01 0.1127497D+01 0.1127497D+01 0.1127497D+01 0.5757971D+00
EXPONENTS  0.5757971D+00 0.5757971D+00 0.2940516D+00 0.2940516D+00 0.2940516D+00
EXPONENTS  0.1501681D+00 0.1501681D+00 0.1501681D+00 0.7668877D-01 0.7668877D-01
EXPONENTS  0.7668877D-01 0.3916390D-01 0.3916390D-01 0.3916390D-01 0.2019954D+06
EXPONENTS  0.1031562D+06 0.5268047D+05 0.2690319D+05 0.1373909D+05 0.7016361D+04
EXPONENTS  0.3583159D+04 0.1829870D+04 0.9344891D+03 0.4772307D+03 0.2437151D+03
EXPONENTS  0.1244619D+03 0.6356100D+02 0.3245972D+02 0.1657673D+02 0.8465508D+01
EXPONENTS  0.4323218D+01 0.2207808D+01 0.1127497D+01 0.5757971D+00 0.2940516D+00
EXPONENTS  0.1501681D+00 0.7668877D-01 0.4772307D+03 0.4772307D+03 0.4772307D+03
EXPONENTS  0.2437151D+03 0.2437151D+03 0.2437151D+03 0.1244619D+03 0.1244619D+03
EXPONENTS  0.1244619D+03 0.6356100D+02 0.6356100D+02 0.6356100D+02 0.3245972D+02
EXPONENTS  0.3245972D+02 0.3245972D+02 0.1657673D+02 0.1657673D+02 0.1657673D+02
EXPONENTS  0.8465508D+01 0.8465508D+01 0.8465508D+01 0.4323218D+01 0.4323218D+01
EXPONENTS  0.4323218D+01 0.2207808D+01 0.2207808D+01 0.2207808D+01 0.1127497D+01
EXPONENTS  0.1127497D+01 0.1127497D+01 0.5757971D+00 0.5757971D+00 0.5757971D+00
EXPONENTS  0.2940516D+00 0.2940516D+00 0.2940516D+00 0.1501681D+00 0.1501681D+00
EXPONENTS  0.1501681D+00 0.7668877D-01 0.7668877D-01 0.7668877D-01 0.3916390D-01
EXPONENTS  0.3916390D-01 0.3916390D-01 0.2019954D+06 0.1031562D+06 0.5268047D+05
EXPONENTS  0.2690319D+05 0.1373909D+05 0.7016361D+04 0.3583159D+04 0.1829870D+04
EXPONENTS  0.9344891D+03 0.4772307D+03 0.2437151D+03 0.1244619D+03 0.6356100D+02
EXPONENTS  0.3245972D+02 0.1657673D+02 0.8465508D+01 0.4323218D+01 0.2207808D+01
EXPONENTS  0.1127497D+01 0.5757971D+00 0.2940516D+00 0.1501681D+00 0.7668877D-01
EXPONENTS  0.4772307D+03 0.4772307D+03 0.4772307D+03 0.2437151D+03 0.2437151D+03
EXPONENTS  0.2437151D+03 0.1244619D+03 0.1244619D+03 0.1244619D+03 0.6356100D+02
EXPONENTS  0.6356100D+02 0.6356100D+02 0.3245972D+02 0.3245972D+02 0.3245972D+02
EXPONENTS  0.1657673D+02 0.1657673D+02 0.1657673D+02 0.8465508D+01 0.8465508D+01
EXPONENTS  0.8465508D+01 0.4323218D+01 0.4323218D+01 0.4323218D+01 0.2207808D+01
EXPONENTS  0.2207808D+01 0.2207808D+01 0.1127497D+01 0.1127497D+01 0.1127497D+01
EXPONENTS  0.5757971D+00 0.5757971D+00 0.5757971D+00 0.2940516D+00 0.2940516D+00
EXPONENTS  0.2940516D+00 0.1501681D+00 0.1501681D+00 0.1501681D+00 0.7668877D-01
EXPONENTS  0.7668877D-01 0.7668877D-01 0.3916390D-01 0.3916390D-01 0.3916390D-01
EXPONENTS  0.2019954D+06 0.1031562D+06 0.5268047D+05 0.2690319D+05 0.1373909D+05
EXPONENTS  0.7016361D+04 0.3583159D+04 0.1829870D+04 0.9344891D+03 0.4772307D+03
EXPONENTS  0.2437151D+03 0.1244619D+03 0.6356100D+02 0.3245972D+02 0.1657673D+02
EXPONENTS  0.8465508D+01 0.4323218D+01 0.2207808D+01 0.1127497D+01 0.5757971D+00
EXPONENTS  0.2940516D+00 0.1501681D+00 0.7668877D-01 0.4772307D+03 0.4772307D+03
EXPONENTS  0.4772307D+03 0.2437151D+03 0.2437151D+03 0.2437151D+03 0.1244619D+03
EXPONENTS  0.1244619D+03 0.1244619D+03 0.6356100D+02 0.6356100D+02 0.6356100D+02
EXPONENTS  0.3245972D+02 0.3245972D+02 0.3245972D+02 0.1657673D+02 0.1657673D+02
EXPONENTS  0.1657673D+02 0.8465508D+01 0.8465508D+01 0.8465508D+01 0.4323218D+01
EXPONENTS  0.4323218D+01 0.4323218D+01 0.2207808D+01 0.2207808D+01 0.2207808D+01
EXPONENTS  0.1127497D+01 0.1127497D+01 0.1127497D+01 0.5757971D+00 0.5757971D+00
EXPONENTS  0.5757971D+00 0.2940516D+00 0.2940516D+00 0.2940516D+00 0.1501681D+00
EXPONENTS  0.1501681D+00 0.1501681D+00 0.7668877D-01 0.7668877D-01 0.7668877D-01
EXPONENTS  0.3916390D-01 0.3916390D-01 0.3916390D-01 0.1373909D+05 0.7016361D+04
EXPONENTS  0.3583159D+04 0.1829870D+04 0.9344891D+03 0.4772307D+03 0.2437151D+03
EXPONENTS  0.1244619D+03 0.6356100D+02 0.3245972D+02 0.1657673D+02 0.8465508D+01
EXPONENTS  0.4323218D+01 0.2207808D+01 0.1127497D+01 0.5757971D+00 0.2940516D+00
EXPONENTS  0.1501681D+00 0.7668877D-01 0.3916390D-01 0.1373909D+05 0.7016361D+04
EXPONENTS  0.3583159D+04 0.1829870D+04 0.9344891D+03 0.4772307D+03 0.2437151D+03
EXPONENTS  0.1244619D+03 0.6356100D+02 0.3245972D+02 0.1657673D+02 0.8465508D+01
EXPONENTS  0.4323218D+01 0.2207808D+01 0.1127497D+01 0.5757971D+00 0.2940516D+00
EXPONENTS  0.1501681D+00 0.7668877D-01 0.3916390D-01 0.1373909D+05 0.7016361D+04
EXPONENTS  0.3583159D+04 0.1829870D+04 0.9344891D+03 0.4772307D+03 0.2437151D+03
EXPONENTS  0.1244619D+03 0.6356100D+02 0.3245972D+02 0.1657673D+02 0.8465508D+01
EXPONENTS  0.4323218D+01 0.2207808D+01 0.1127497D+01 0.5757971D+00 0.2940516D+00
EXPONENTS  0.1501681D+00 0.7668877D-01 0.3916390D-01 0.1373909D+05 0.7016361D+04
EXPONENTS  0.3583159D+04 0.1829870D+04 0.9344891D+03 0.4772307D+03 0.2437151D+03
EXPONENTS  0.1244619D+03 0.6356100D+02 0.3245972D+02 0.1657673D+02 0.8465508D+01
EXPONENTS  0.4323218D+01 0.2207808D+01 0.1127497D+01 0.5757971D+00 0.2940516D+00
EXPONENTS  0.1501681D+00 0.7668877D-01 0.3916390D-01 0.1373909D+05 0.7016361D+04
EXPONENTS  0.3583159D+04 0.1829870D+04 0.9344891D+03 0.4772307D+03 0.2437151D+03
EXPONENTS  0.1244619D+03 0.6356100D+02 0.3245972D+02 0.1657673D+02 0.8465508D+01
EXPONENTS  0.4323218D+01 0.2207808D+01 0.1127497D+01 0.5757971D+00 0.2940516D+00
EXPONENTS  0.1501681D+00 0.7668877D-01 0.3916390D-01 0.1373909D+05 0.7016361D+04
EXPONENTS  0.3583159D+04 0.1829870D+04 0.9344891D+03 0.4772307D+03 0.2437151D+03
EXPONENTS  0.1244619D+03 0.6356100D+02 0.3245972D+02 0.1657673D+02 0.8465508D+01
EXPONENTS  0.4323218D+01 0.2207808D+01 0.1127497D+01 0.5757971D+00 0.2940516D+00
EXPONENTS  0.1501681D+00 0.7668877D-01 0.3916390D-01
MO    1     MO 0.0        OCC NO =    2.0000000  ORB. ENERGY =  -11.243476
  0.29411583D-01 -0.13654603D-01  0.35752084D-01  0.85576593D-02  0.39290944D-01
  0.38146520D-01  0.63247341D-01  0.82565849D-01  0.11809442D+00  0.16197996D+00
  0.22277439D+00  0.29939605D+00  0.38640534D+00  0.46466031D+00  0.49173243D+00
  0.42406782D+00  0.24465715D+00  0.68916903D-01  0.44827626D-02  0.16276381D-02
 -0.52799501D-03  0.20324963D-03 -0.34410734D-04  0.00000000D+00  0.00000000D+00
  0.17465755D-03  0.00000000D+00  0.00000000D+00 -0.48978309D-03  0.00000000D+00
  0.00000000D+00  0.52216396D-03  0.00000000D+00  0.00000000D+00 -0.67596492D-03
  0.00000000D+00  0.00000000D+00  0.45386759D-03  0.00000000D+00  0.00000000D+00
 -0.61242457D-03  0.00000000D+00  0.00000000D+00  0.28060200D-03  0.00000000D+00
  0.00000000D+00 -0.33606323D-03  0.00000000D+00  0.00000000D+00 -0.18065645D-04
  0.00000000D+00  0.00000000D+00  0.17850910D-04  0.00000000D+00  0.00000000D+00
 -0.34407935D-03  0.00000000D+00  0.00000000D+00  0.16972916D-03  0.00000000D+00
  0.00000000D+00 -0.57609525D-04  0.00000000D+00  0.00000000D+00  0.15498766D-04
  0.00000000D+00  0.00000000D+00 -0.28507927D-05  0.29411841D-01 -0.13654723D-01
  0.35752398D-01  0.85577339D-02  0.39291289D-01  0.38146853D-01  0.63247896D-01
  0.82566572D-01  0.11809546D+00  0.16198138D+00  0.22277634D+00  0.29939867D+00
  0.38640873D+00  0.46466438D+00  0.49173675D+00  0.42407153D+00  0.24465931D+00
  0.68917498D-01  0.44828141D-02  0.16276392D-02 -0.52799251D-03  0.20324737D-03
 -0.34408633D-04  0.00000000D+00  0.15125658D-03  0.87326462D-04  0.00000000D+00
 -0.42416164D-03 -0.24488757D-03  0.00000000D+00  0.45220375D-03  0.26107657D-03
  0.00000000D+00 -0.58539895D-03 -0.33797754D-03  0.00000000D+00  0.39305748D-03
  0.22692829D-03  0.00000000D+00 -0.53037211D-03 -0.30620835D-03  0.00000000D+00
  0.24300641D-03  0.14029603D-03  0.00000000D+00 -0.29103736D-03 -0.16802894D-03
  0.00000000D+00 -0.15645196D-04 -0.90363390D-05  0.00000000D+00  0.15457400D-04
  0.89277352D-05  0.00000000D+00 -0.29797802D-03 -0.17204140D-03  0.00000000D+00
  0.14698772D-03  0.84864808D-04  0.00000000D+00 -0.49890018D-04 -0.28804552D-04
  0.00000000D+00  0.13421695D-04  0.77492261D-05  0.00000000D+00 -0.24689362D-05
 -0.14255029D-05  0.29411841D-01 -0.13654723D-01  0.35752398D-01  0.85577339D-02
  0.39291289D-01  0.38146853D-01  0.63247896D-01  0.82566572D-01  0.11809546D+00
  0.16198138D+00  0.22277634D+00  0.29939867D+00  0.38640873D+00  0.46466438D+00
  0.49173675D+00  0.42407153D+00  0.24465931D+00  0.68917498D-01  0.44828141D-02
  0.16276392D-02 -0.52799251D-03  0.20324737D-03 -0.34408633D-04  0.00000000D+00
  0.15125658D-03 -0.87326462D-04  0.00000000D+00 -0.42416164D-03  0.24488757D-03
  0.00000000D+00  0.45220375D-03 -0.26107657D-03  0.00000000D+00 -0.58539895D-03
  0.33797754D-03  0.00000000D+00  0.39305748D-03 -0.22692829D-03  0.00000000D+00
 -0.53037211D-03  0.30620835D-03  0.00000000D+00  0.24300641D-03 -0.14029603D-03
  0.00000000D+00 -0.29103736D-03  0.16802894D-03  0.00000000D+00 -0.15645196D-04
  0.90363390D-05  0.00000000D+00  0.15457400D-04 -0.89277352D-05  0.00000000D+00
 -0.29797802D-03  0.17204140D-03  0.00000000D+00  0.14698772D-03 -0.84864808D-04
  0.00000000D+00 -0.49890018D-04  0.28804552D-04  0.00000000D+00  0.13421695D-04
 -0.77492261D-05  0.00000000D+00 -0.24689362D-05  0.14255029D-05  0.29411583D-01
 -0.13654603D-01  0.35752084D-01  0.85576593D-02  0.39290944D-01  0.38146520D-01
  0.63247341D-01  0.82565849D-01  0.11809442D+00  0.16197996D+00  0.22277439D+00
  0.29939605D+00  0.38640534D+00  0.46466031D+00  0.49173243D+00  0.42406782D+00
  0.24465715D+00  0.68916903D-01  0.44827626D-02  0.16276381D-02 -0.52799501D-03
  0.20324963D-03 -0.34410734D-04  0.00000000D+00  0.00000000D+00 -0.17465755D-03
  0.00000000D+00  0.00000000D+00  0.48978309D-03  0.00000000D+00  0.00000000D+00
 -0.52216396D-03  0.00000000D+00  0.00000000D+00  0.67596492D-03  0.00000000D+00
  0.00000000D+00 -0.45386759D-03  0.00000000D+00  0.00000000D+00  0.61242457D-03
  0.00000000D+00  0.00000000D+00 -0.28060200D-03  0.00000000D+00  0.00000000D+00
  0.33606323D-03  0.00000000D+00  0.00000000D+00  0.18065645D-04  0.00000000D+00
  0.00000000D+00 -0.17850910D-04  0.00000000D+00  0.00000000D+00  0.34407935D-03
  0.00000000D+00  0.00000000D+00 -0.16972916D-03  0.00000000D+00  0.00000000D+00
  0.57609525D-04  0.00000000D+00  0.00000000D+00 -0.15498766D-04  0.00000000D+00
  0.00000000D+00  0.28507927D-05  0.29411841D-01 -0.13654723D-01  0.35752398D-01
  0.85577339D-02  0.39291289D-01  0.38146853D-01  0.63247896D-01  0.82566572D-01
  0.11809546D+00  0.16198138D+00  0.22277634D+00  0.29939867D+00  0.38640873D+00
  0.46466438D+00  0.49173675D+00  0.42407153D+00  0.24465931D+00  0.68917498D-01
  0.44828141D-02  0.16276392D-02 -0.52799251D-03  0.20324737D-03 -0.34408633D-04
  0.00000000D+00 -0.15125658D-03 -0.87326462D-04  0.00000000D+00  0.42416164D-03
  0.24488757D-03  0.00000000D+00 -0.45220375D-03 -0.26107657D-03  0.00000000D+00
  0.58539895D-03  0.33797754D-03  0.00000000D+00 -0.39305748D-03 -0.22692829D-03
  0.00000000D+00  0.53037211D-03  0.30620835D-03  0.00000000D+00 -0.24300641D-03
 -0.14029603D-03  0.00000000D+00  0.29103736D-03  0.16802894D-03  0.00000000D+00
  0.15645196D-04  0.90363390D-05  0.00000000D+00 -0.15457400D-04 -0.89277352D-05
  0.00000000D+00  0.29797802D-03  0.17204140D-03  0.00000000D+00 -0.14698772D-03
 -0.84864808D-04  0.00000000D+00  0.49890018D-04  0.28804552D-04  0.00000000D+00
 -0.13421695D-04 -0.77492261D-05  0.00000000D+00  0.24689362D-05  0.14255029D-05
  0.29411841D-01 -0.13654723D-01  0.35752398D-01  0.85577339D-02  0.39291289D-01
  0.38146853D-01  0.63247896D-01  0.82566572D-01  0.11809546D+00  0.16198138D+00
  0.22277634D+00  0.29939867D+00  0.38640873D+00  0.46466438D+00  0.49173675D+00
  0.42407153D+00  0.24465931D+00  0.68917498D-01  0.44828141D-02  0.16276392D-02
 -0.52799251D-03  0.20324737D-03 -0.34408633D-04  0.00000000D+00 -0.15125658D-03
  0.87326462D-04  0.00000000D+00  0.42416164D-03 -0.24488757D-03  0.00000000D+00
 -0.45220375D-03  0.26107657D-03  0.00000000D+00  0.58539895D-03 -0.33797754D-03
  0.00000000D+00 -0.39305748D-03  0.22692829D-03  0.00000000D+00  0.53037211D-03
 -0.30620835D-03  0.00000000D+00 -0.24300641D-03  0.14029603D-03  0.00000000D+00
  0.29103736D-03 -0.16802894D-03  0.00000000D+00  0.15645196D-04 -0.90363390D-05
  0.00000000D+00 -0.15457400D-04  0.89277352D-05  0.00000000D+00  0.29797802D-03
 -0.17204140D-03  0.00000000D+00 -0.14698772D-03  0.84864808D-04  0.00000000D+00
  0.49890018D-04 -0.28804552D-04  0.00000000D+00 -0.13421695D-04  0.77492261D-05
  0.00000000D+00  0.24689362D-05 -0.14255029D-05  0.16782821D-04 -0.46637774D-04
  0.86165101D-04 -0.12312106D-03  0.16831859D-03 -0.20913836D-03  0.26880297D-03
 -0.32076675D-03  0.40709837D-03 -0.47321344D-03  0.59483629D-03 -0.66414407D-03
  0.80161399D-03 -0.79938362D-03  0.74166307D-03 -0.32511420D-03  0.96083439D-04
 -0.60378014D-05 -0.11525264D-04  0.59599492D-05  0.16782876D-04 -0.46637897D-04
  0.86165333D-04 -0.12312136D-03  0.16831903D-03 -0.20913887D-03  0.26880367D-03
 -0.32076751D-03  0.40709944D-03 -0.47321457D-03  0.59483794D-03 -0.66414573D-03
  0.80161640D-03 -0.79938576D-03  0.74166526D-03 -0.32511420D-03  0.96083569D-04
 -0.60384095D-05 -0.11524460D-04  0.59600210D-05  0.16782876D-04 -0.46637897D-04
  0.86165333D-04 -0.12312136D-03  0.16831903D-03 -0.20913887D-03  0.26880367D-03
 -0.32076751D-03  0.40709944D-03 -0.47321457D-03  0.59483794D-03 -0.66414573D-03
  0.80161640D-03 -0.79938576D-03  0.74166526D-03 -0.32511420D-03  0.96083569D-04
 -0.60384095D-05 -0.11524460D-04  0.59600210D-05  0.16782821D-04 -0.46637774D-04
  0.86165101D-04 -0.12312106D-03  0.16831859D-03 -0.20913836D-03  0.26880297D-03
 -0.32076675D-03  0.40709837D-03 -0.47321344D-03  0.59483629D-03 -0.66414407D-03
  0.80161399D-03 -0.79938362D-03  0.74166307D-03 -0.32511420D-03  0.96083439D-04
 -0.60378014D-05 -0.11525264D-04  0.59599492D-05  0.16782876D-04 -0.46637897D-04
  0.86165333D-04 -0.12312136D-03  0.16831903D-03 -0.20913887D-03  0.26880367D-03
 -0.32076751D-03  0.40709944D-03 -0.47321457D-03  0.59483794D-03 -0.66414573D-03
  0.80161640D-03 -0.79938576D-03  0.74166526D-03 -0.32511420D-03  0.96083569D-04
 -0.60384095D-05 -0.11524460D-04  0.59600210D-05  0.16782876D-04 -0.46637897D-04
  0.86165333D-04 -0.12312136D-03  0.16831903D-03 -0.20913887D-03  0.26880367D-03
 -0.32076751D-03  0.40709944D-03 -0.47321457D-03  0.59483794D-03 -0.66414573D-03
  0.80161640D-03 -0.79938576D-03  0.74166526D-03 -0.32511420D-03  0.96083569D-04
 -0.60384095D-05 -0.11524460D-04  0.59600210D-05
MO    2     MO 0.0        OCC NO =    2.0000000  ORB. ENERGY =  -11.242887
  0.00000000D+00  0.00000000D+00  0.00000000D+00  0.00000000D+00  0.00000000D+00
  0.00000000D+00  0.00000000D+00  0.00000000D+00  0.00000000D+00  0.00000000D+00
  0.00000000D+00  0.00000000D+00  0.00000000D+00  0.00000000D+00  0.00000000D+00
  0.00000000D+00  0.00000000D+00  0.00000000D+00  0.00000000D+00  0.00000000D+00
  0.00000000D+00  0.00000000D+00  0.00000000D+00  0.00000000D+00 -0.10340873D-03
  0.00000000D+00  0.00000000D+00  0.39735045D-03  0.00000000D+00  0.00000000D+00
 -0.37593367D-03  0.00000000D+00  0.00000000D+00  0.56194104D-03  0.00000000D+00
  0.00000000D+00 -0.30187899D-03  0.00000000D+00  0.00000000D+00  0.49550400D-03
  0.00000000D+00  0.00000000D+00 -0.80072599D-04  0.00000000D+00  0.00000000D+00
  0.19621909D-03  0.00000000D+00  0.00000000D+00  0.38245872D-03  0.00000000D+00
  0.00000000D+00 -0.49316306D-03  0.00000000D+00  0.00000000D+00  0.87834510D-03
  0.00000000D+00  0.00000000D+00 -0.41471083D-03  0.00000000D+00  0.00000000D+00
  0.18163052D-03  0.00000000D+00  0.00000000D+00 -0.71672011D-04  0.00000000D+00
  0.00000000D+00  0.56894794D-05  0.00000000D+00  0.36027631D-01 -0.16726968D-01
  0.43795769D-01  0.10480030D-01  0.48132350D-01  0.46722674D-01  0.77479504D-01
  0.10113110D+00  0.14466671D+00  0.19840483D+00  0.27289791D+00  0.36672583D+00
  0.47334536D+00  0.56915731D+00  0.60239179D+00  0.51941495D+00  0.29982613D+00
  0.84234235D-01  0.58385129D-02  0.15536551D-02 -0.38886489D-03  0.85296728D-04
  0.73525632D-04  0.00000000D+00 -0.28934043D-03 -0.10734910D-03  0.00000000D+00
  0.52503426D-03  0.73720989D-04  0.00000000D+00 -0.69610683D-03 -0.18485548D-03
  0.00000000D+00  0.65482150D-03  0.53628045D-04  0.00000000D+00 -0.71461577D-03
 -0.23829702D-03  0.00000000D+00  0.53370605D-03  0.22058855D-04  0.00000000D+00
 -0.57622823D-03 -0.28645869D-03  0.00000000D+00  0.44096833D-03  0.14130752D-03
  0.00000000D+00 -0.42357779D-03 -0.46536682D-03  0.00000000D+00  0.20108205D-03
  0.40082373D-03  0.00000000D+00 -0.16959185D-03 -0.60502667D-03  0.00000000D+00
  0.48355087D-04  0.26735111D-03  0.00000000D+00 -0.11638933D-04 -0.11158412D-03
  0.00000000D+00  0.45386285D-05  0.44000216D-04  0.00000000D+00 -0.51550902D-05
 -0.62611100D-05  0.36027631D-01 -0.16726968D-01  0.43795769D-01  0.10480030D-01
  0.48132350D-01  0.46722674D-01  0.77479504D-01  0.10113110D+00  0.14466671D+00
  0.19840483D+00  0.27289791D+00  0.36672583D+00  0.47334536D+00  0.56915731D+00
  0.60239179D+00  0.51941495D+00  0.29982613D+00  0.84234235D-01  0.58385129D-02
  0.15536551D-02 -0.38886489D-03  0.85296728D-04  0.73525632D-04  0.00000000D+00
 -0.28934043D-03  0.10734910D-03  0.00000000D+00  0.52503426D-03 -0.73720989D-04
  0.00000000D+00 -0.69610683D-03  0.18485548D-03  0.00000000D+00  0.65482150D-03
 -0.53628045D-04  0.00000000D+00 -0.71461577D-03  0.23829702D-03  0.00000000D+00
  0.53370605D-03 -0.22058855D-04  0.00000000D+00 -0.57622823D-03  0.28645869D-03
  0.00000000D+00  0.44096833D-03 -0.14130752D-03  0.00000000D+00 -0.42357779D-03
  0.46536682D-03  0.00000000D+00  0.20108205D-03 -0.40082373D-03  0.00000000D+00
 -0.16959185D-03  0.60502667D-03  0.00000000D+00  0.48355087D-04 -0.26735111D-03
  0.00000000D+00 -0.11638933D-04  0.11158412D-03  0.00000000D+00  0.45386285D-05
 -0.44000216D-04  0.00000000D+00 -0.51550902D-05  0.62611100D-05  0.00000000D+00
  0.00000000D+00  0.00000000D+00  0.00000000D+00  0.00000000D+00  0.00000000D+00
  0.00000000D+00  0.00000000D+00  0.00000000D+00  0.00000000D+00  0.00000000D+00
  0.00000000D+00  0.00000000D+00  0.00000000D+00  0.00000000D+00  0.00000000D+00
  0.00000000D+00  0.00000000D+00  0.00000000D+00  0.00000000D+00  0.00000000D+00
  0.00000000D+00  0.00000000D+00  0.00000000D+00 -0.10340873D-03  0.00000000D+00
  0.00000000D+00  0.39735045D-03  0.00000000D+00  0.00000000D+00 -0.37593367D-03
  0.00000000D+00  0.00000000D+00  0.56194104D-03  0.00000000D+00  0.00000000D+00
 -0.30187899D-03  0.00000000D+00  0.00000000D+00  0.49550400D-03  0.00000000D+00
  0.00000000D+00 -0.80072599D-04  0.00000000D+00  0.00000000D+00  0.19621909D-03
  0.00000000D+00  0.00000000D+00  0.38245872D-03  0.00000000D+00  0.00000000D+00
 -0.49316306D-03  0.00000000D+00  0.00000000D+00  0.87834510D-03  0.00000000D+00
  0.00000000D+00 -0.41471083D-03  0.00000000D+00  0.00000000D+00  0.18163052D-03
  0.00000000D+00  0.00000000D+00 -0.71672011D-04  0.00000000D+00  0.00000000D+00
  0.56894794D-05  0.00000000D+00 -0.36027631D-01  0.16726968D-01 -0.43795769D-01
 -0.10480030D-01 -0.48132350D-01 -0.46722674D-01 -0.77479504D-01 -0.10113110D+00
 -0.14466671D+00 -0.19840483D+00 -0.27289791D+00 -0.36672583D+00 -0.47334536D+00
 -0.56915731D+00 -0.60239179D+00 -0.51941495D+00 -0.29982613D+00 -0.84234235D-01
 -0.58385129D-02 -0.15536551D-02  0.38886489D-03 -0.85296728D-04 -0.73525632D-04
  0.00000000D+00 -0.28934043D-03 -0.10734910D-03  0.00000000D+00  0.52503426D-03
  0.73720989D-04  0.00000000D+00 -0.69610683D-03 -0.18485548D-03  0.00000000D+00
  0.65482150D-03  0.53628045D-04  0.00000000D+00 -0.71461577D-03 -0.23829702D-03
  0.00000000D+00  0.53370605D-03  0.22058855D-04  0.00000000D+00 -0.57622823D-03
 -0.28645869D-03  0.00000000D+00  0.44096833D-03  0.14130752D-03  0.00000000D+00
 -0.42357779D-03 -0.46536682D-03  0.00000000D+00  0.20108205D-03  0.40082373D-03
  0.00000000D+00 -0.16959185D-03 -0.60502667D-03  0.00000000D+00  0.48355087D-04
  0.26735111D-03  0.00000000D+00 -0.11638933D-04 -0.11158412D-03  0.00000000D+00
  0.45386285D-05  0.44000216D-04  0.00000000D+00 -0.51550902D-05 -0.62611100D-05
 -0.36027631D-01  0.16726968D-01 -0.43795769D-01 -0.10480030D-01 -0.48132350D-01
 -0.46722674D-01 -0.77479504D-01 -0.10113110D+00 -0.14466671D+00 -0.19840483D+00
 -0.27289791D+00 -0.36672583D+00 -0.47334536D+00 -0.56915731D+00 -0.60239179D+00
 -0.51941495D+00 -0.29982613D+00 -0.84234235D-01 -0.58385129D-02 -0.15536551D-02
  0.38886489D-03 -0.85296728D-04 -0.73525632D-04  0.00000000D+00 -0.28934043D-03
  0.10734910D-03  0.00000000D+00  0.52503426D-03 -0.73720989D-04  0.00000000D+00
 -0.69610683D-03  0.18485548D-03  0.00000000D+00  0.65482150D-03 -0.53628045D-04
  0.00000000D+00 -0.71461577D-03  0.23829702D-03  0.00000000D+00  0.53370605D-03
 -0.22058855D-04  0.00000000D+00 -0.57622823D-03  0.28645869D-03  0.00000000D+00
  0.44096833D-03 -0.14130752D-03  0.00000000D+00 -0.42357779D-03  0.46536682D-03
  0.00000000D+00  0.20108205D-03 -0.40082373D-03  0.00000000D+00 -0.16959185D-03
  0.60502667D-03  0.00000000D+00  0.48355087D-04 -0.26735111D-03  0.00000000D+00
 -0.11638933D-04  0.11158412D-03  0.00000000D+00  0.45386285D-05 -0.44000216D-04
  0.00000000D+00 -0.51550902D-05  0.62611100D-05  0.00000000D+00  0.00000000D+00
  0.00000000D+00  0.00000000D+00  0.00000000D+00  0.00000000D+00  0.00000000D+00
  0.00000000D+00  0.00000000D+00  0.00000000D+00  0.00000000D+00  0.00000000D+00
  0.00000000D+00  0.00000000D+00  0.00000000D+00  0.00000000D+00  0.00000000D+00
  0.00000000D+00  0.00000000D+00  0.00000000D+00  0.13651384D-04 -0.35770808D-04
  0.66423559D-04 -0.93020341D-04  0.12880010D-03 -0.15730632D-03  0.20582617D-03
 -0.24082979D-03  0.31318148D-03 -0.35603169D-03  0.46345418D-03 -0.50650702D-03
  0.63752033D-03 -0.61466489D-03  0.58207306D-03 -0.18421597D-03  0.44540298D-04
  0.80336914D-05 -0.23008410D-04  0.12481284D-04  0.13651384D-04 -0.35770808D-04
  0.66423559D-04 -0.93020341D-04  0.12880010D-03 -0.15730632D-03  0.20582617D-03