 TITLE
GAUSSIAN             17 MOL ORBITALS    228 PRIMITIVES        2 NUCLEI
  Cl   1    (CENTRE  1)   0.00000000  0.00000000  1.88046647  CHARGE = 17.0
  Cl   2    (CENTRE  2)   0.00000000  0.00000000 -1.88046647  CHARGE = 17.0
CENTRE ASSIGNMENTS    1  1  1  1  1  1  1  1  1  1  1  1  1  1  1  1  1  1  1  1
CENTRE ASSIGNMENTS    1  1  1  1  1  1  1  1  1  1  1  1  1  1  1  1  1  1  1  1
CENTRE ASSIGNMENTS    1  1  1  1  1  1  1  1  1  1  1  1  1  1  1  1  1  1  1  1
CENTRE ASSIGNMENTS    1  1  1  1  1  1  1  1  1  1  1  1  1  1  1  1  1  1  1  1
CENTRE ASSIGNMENTS    1  1  1  1  1  1  1  1  1  1  1  1  1  1  1  1  1  1  1  1
CENTRE ASSIGNMENTS    1  1  1  1  1  1  1  1  1  1  1  1  1  1  2  2  2  2  2  2
CENTRE ASSIGNMENTS    2  2  2  2  2  2  2  2  2  2  2  2  2  2  2  2  2  2  2  2
CENTRE ASSIGNMENTS    2  2  2  2  2  2  2  2  2  2  2  2  2  2  2  2  2  2  2  2
CENTRE ASSIGNMENTS    2  2  2  2  2  2  2  2  2  2  2  2  2  2  2  2  2  2  2  2
CENTRE ASSIGNMENTS    2  2  2  2  2  2  2  2  2  2  2  2  2  2  2  2  2  2  2  2
CENTRE ASSIGNMENTS    2  2  2  2  2  2  2  2  2  2  2  2  2  2  2  2  2  2  2  2
CENTRE ASSIGNMENTS    2  2  2  2  2  2  2  2
TYPE ASSIGNMENTS      1  1  1  1  1  1  1  1  1  1  1  1  1  1  1  1  1  1  1  1
TYPE ASSIGNMENTS      1  1  1  1  1  1  1  1  1  1  1  2  2  2  2  2  2  3  3  3
TYPE ASSIGNMENTS      3  3  3  4  4  4  4  4  4  2  2  2  2  2  2  3  3  3  3  3
TYPE ASSIGNMENTS      3  4  4  4  4  4  4  2  3  4  2  3  4  2  3  4  5  6  7  8
TYPE ASSIGNMENTS      9 10  5  6  7  8  9 10  5  6  7  8  9 10 11 12 13 17 14 15
TYPE ASSIGNMENTS     18 19 16 20 11 12 13 17 14 15 18 19 16 20  1  1  1  1  1  1
TYPE ASSIGNMENTS      1  1  1  1  1  1  1  1  1  1  1  1  1  1  1  1  1  1  1  1
TYPE ASSIGNMENTS      1  1  1  1  1  2  2  2  2  2  2  3  3  3  3  3  3  4  4  4
TYPE ASSIGNMENTS      4  4  4  2  2  2  2  2  2  3  3  3  3  3  3  4  4  4  4  4
TYPE ASSIGNMENTS      4  2  3  4  2  3  4  2  3  4  5  6  7  8  9 10  5  6  7  8
TYPE ASSIGNMENTS      9 10  5  6  7  8  9 10 11 12 13 17 14 15 18 19 16 20 11 12
TYPE ASSIGNMENTS     13 17 14 15 18 19 16 20
EXPONENTS  0.4561000D+06 0.6833000D+05 0.1555000D+05 0.4405000D+04 0.1439000D+04
EXPONENTS  0.5204000D+03 0.2031000D+03 0.8396000D+02 0.3620000D+02 0.1583000D+02
EXPONENTS  0.6334000D+01 0.4405000D+04 0.1439000D+04 0.5204000D+03 0.2031000D+03
EXPONENTS  0.8396000D+02 0.3620000D+02 0.1583000D+02 0.6334000D+01 0.2694000D+01
EXPONENTS  0.1439000D+04 0.2031000D+03 0.8396000D+02 0.3620000D+02 0.1583000D+02
EXPONENTS  0.6334000D+01 0.2694000D+01 0.4313000D+00 0.9768000D+00 0.1625000D+00
EXPONENTS  0.5910000D-01 0.6633000D+03 0.1568000D+03 0.4998000D+02 0.1842000D+02
EXPONENTS  0.7240000D+01 0.2922000D+01 0.6633000D+03 0.1568000D+03 0.4998000D+02
EXPONENTS  0.1842000D+02 0.7240000D+01 0.2922000D+01 0.6633000D+03 0.1568000D+03
EXPONENTS  0.4998000D+02 0.1842000D+02 0.7240000D+01 0.2922000D+01 0.1568000D+03
EXPONENTS  0.4998000D+02 0.1842000D+02 0.7240000D+01 0.2922000D+01 0.3818000D+00
EXPONENTS  0.1568000D+03 0.4998000D+02 0.1842000D+02 0.7240000D+01 0.2922000D+01
EXPONENTS  0.3818000D+00 0.1568000D+03 0.4998000D+02 0.1842000D+02 0.7240000D+01
EXPONENTS  0.2922000D+01 0.3818000D+00 0.1022000D+01 0.1022000D+01 0.1022000D+01
EXPONENTS  0.1301000D+00 0.1301000D+00 0.1301000D+00 0.4190000D-01 0.4190000D-01
EXPONENTS  0.4190000D-01 0.1046000D+01 0.1046000D+01 0.1046000D+01 0.1046000D+01
EXPONENTS  0.1046000D+01 0.1046000D+01 0.3440000D+00 0.3440000D+00 0.3440000D+00
EXPONENTS  0.3440000D+00 0.3440000D+00 0.3440000D+00 0.1350000D+00 0.1350000D+00
EXPONENTS  0.1350000D+00 0.1350000D+00 0.1350000D+00 0.1350000D+00 0.7060000D+00
EXPONENTS  0.7060000D+00 0.7060000D+00 0.7060000D+00 0.7060000D+00 0.7060000D+00
EXPONENTS  0.7060000D+00 0.7060000D+00 0.7060000D+00 0.7060000D+00 0.3120000D+00
EXPONENTS  0.3120000D+00 0.3120000D+00 0.3120000D+00 0.3120000D+00 0.3120000D+00
EXPONENTS  0.3120000D+00 0.3120000D+00 0.3120000D+00 0.3120000D+00 0.4561000D+06
EXPONENTS  0.6833000D+05 0.1555000D+05 0.4405000D+04 0.1439000D+04 0.5204000D+03
EXPONENTS  0.2031000D+03 0.8396000D+02 0.3620000D+02 0.1583000D+02 0.6334000D+01
EXPONENTS  0.4405000D+04 0.1439000D+04 0.5204000D+03 0.2031000D+03 0.8396000D+02
EXPONENTS  0.3620000D+02 0.1583000D+02 0.6334000D+01 0.2694000D+01 0.1439000D+04
EXPONENTS  0.2031000D+03 0.8396000D+02 0.3620000D+02 0.1583000D+02 0.6334000D+01
EXPONENTS  0.2694000D+01 0.4313000D+00 0.9768000D+00 0.1625000D+00 0.5910000D-01
EXPONENTS  0.6633000D+03 0.1568000D+03 0.4998000D+02 0.1842000D+02 0.7240000D+01
EXPONENTS  0.2922000D+01 0.6633000D+03 0.1568000D+03 0.4998000D+02 0.1842000D+02
EXPONENTS  0.7240000D+01 0.2922000D+01 0.6633000D+03 0.1568000D+03 0.4998000D+02
EXPONENTS  0.1842000D+02 0.7240000D+01 0.2922000D+01 0.1568000D+03 0.4998000D+02
EXPONENTS  0.1842000D+02 0.7240000D+01 0.2922000D+01 0.3818000D+00 0.1568000D+03
EXPONENTS  0.4998000D+02 0.1842000D+02 0.7240000D+01 0.2922000D+01 0.3818000D+00
EXPONENTS  0.1568000D+03 0.4998000D+02 0.1842000D+02 0.7240000D+01 0.2922000D+01
EXPONENTS  0.3818000D+00 0.1022000D+01 0.1022000D+01 0.1022000D+01 0.1301000D+00
EXPONENTS  0.1301000D+00 0.1301000D+00 0.4190000D-01 0.4190000D-01 0.4190000D-01
EXPONENTS  0.1046000D+01 0.1046000D+01 0.1046000D+01 0.1046000D+01 0.1046000D+01
EXPONENTS  0.1046000D+01 0.3440000D+00 0.3440000D+00 0.3440000D+00 0.3440000D+00
EXPONENTS  0.3440000D+00 0.3440000D+00 0.1350000D+00 0.1350000D+00 0.1350000D+00
EXPONENTS  0.1350000D+00 0.1350000D+00 0.1350000D+00 0.7060000D+00 0.7060000D+00
EXPONENTS  0.7060000D+00 0.7060000D+00 0.7060000D+00 0.7060000D+00 0.7060000D+00
EXPONENTS  0.7060000D+00 0.7060000D+00 0.7060000D+00 0.3120000D+00 0.3120000D+00
EXPONENTS  0.3120000D+00 0.3120000D+00 0.3120000D+00 0.3120000D+00 0.3120000D+00
EXPONENTS  0.3120000D+00 0.3120000D+00 0.3120000D+00
MO    1     MO 0.0        OCC NO =    2.0000000  ORB. ENERGY = -104.900933
  0.43605068D+00  0.81580429D+00  0.14095289D+01  0.22850119D+01  0.34700098D+01
  0.48229872D+01  0.57341622D+01  0.51081909D+01  0.25368356D+01  0.40840908D+00
  0.43089570D-02 -0.11752729D-05 -0.39205135D-04 -0.13662205D-03 -0.49199811D-03
 -0.10845486D-02 -0.15266944D-02  0.72828299D-04  0.19979448D-02  0.11813722D-02
  0.82257061D-07  0.99633388D-06  0.20777493D-05  0.59586232D-05  0.30942300D-06
 -0.25696473D-04 -0.66394751D-04  0.54095318D-04 -0.19414198D-03 -0.86008796D-05
  0.31698398D-06  0.00000000D+00  0.00000000D+00  0.00000000D+00  0.00000000D+00
  0.00000000D+00  0.00000000D+00  0.00000000D+00  0.00000000D+00  0.00000000D+00
  0.00000000D+00  0.00000000D+00  0.00000000D+00 -0.59104489D-03 -0.77854438D-03
 -0.85885632D-03 -0.71334742D-03 -0.37880728D-03 -0.97734257D-04  0.00000000D+00
 -0.00000000D+00 -0.00000000D+00 -0.00000000D+00  0.00000000D+00  0.00000000D+00
  0.00000000D+00 -0.00000000D+00 -0.00000000D+00 -0.00000000D+00  0.00000000D+00
  0.00000000D+00 -0.85871006D-06  0.83014564D-05  0.11705920D-04  0.16742562D-04
 -0.84781979D-07 -0.15354509D-04  0.00000000D+00  0.00000000D+00  0.47093070D-04
  0.00000000D+00  0.00000000D+00  0.29296071D-05  0.00000000D+00  0.00000000D+00
 -0.79868662D-07 -0.77008010D-05 -0.77008010D-05  0.15401602D-04  0.00000000D+00
  0.00000000D+00  0.00000000D+00  0.35432489D-06  0.35432489D-06 -0.70864978D-06
  0.00000000D+00  0.00000000D+00  0.00000000D+00  0.34514798D-06  0.34514798D-06
 -0.69029597D-06  0.00000000D+00  0.00000000D+00  0.00000000D+00  0.00000000D+00
  0.00000000D+00 -0.84528772D-06  0.00000000D+00  0.00000000D+00  0.12679316D-05
  0.00000000D+00  0.00000000D+00  0.12679316D-05  0.00000000D+00  0.00000000D+00
  0.00000000D+00  0.12364611D-05  0.00000000D+00  0.00000000D+00 -0.18546916D-05
  0.00000000D+00  0.00000000D+00 -0.18546916D-05  0.00000000D+00  0.43605068D+00
  0.81580429D+00  0.14095289D+01  0.22850119D+01  0.34700098D+01  0.48229872D+01
  0.57341622D+01  0.51081909D+01  0.25368356D+01  0.40840908D+00  0.43089570D-02
 -0.11752729D-05 -0.39205135D-04 -0.13662205D-03 -0.49199811D-03 -0.10845486D-02
 -0.15266944D-02  0.72828299D-04  0.19979448D-02  0.11813722D-02  0.82257061D-07
  0.99633388D-06  0.20777493D-05  0.59586232D-05  0.30942300D-06 -0.25696473D-04
 -0.66394751D-04  0.54095318D-04 -0.19414198D-03 -0.86008796D-05  0.31698398D-06
  0.00000000D+00  0.00000000D+00  0.00000000D+00  0.00000000D+00  0.00000000D+00
  0.00000000D+00  0.00000000D+00  0.00000000D+00  0.00000000D+00  0.00000000D+00
  0.00000000D+00  0.00000000D+00  0.59104489D-03  0.77854438D-03  0.85885632D-03
  0.71334742D-03  0.37880728D-03  0.97734257D-04  0.00000000D+00 -0.00000000D+00
 -0.00000000D+00 -0.00000000D+00  0.00000000D+00  0.00000000D+00  0.00000000D+00
 -0.00000000D+00 -0.00000000D+00 -0.00000000D+00  0.00000000D+00  0.00000000D+00
  0.85871006D-06 -0.83014564D-05 -0.11705920D-04 -0.16742562D-04  0.84781979D-07
  0.15354509D-04  0.00000000D+00  0.00000000D+00 -0.47093070D-04  0.00000000D+00
  0.00000000D+00 -0.29296071D-05  0.00000000D+00  0.00000000D+00  0.79868662D-07
 -0.77008010D-05 -0.77008010D-05  0.15401602D-04  0.00000000D+00  0.00000000D+00
  0.00000000D+00  0.35432489D-06  0.35432489D-06 -0.70864978D-06  0.00000000D+00
  0.00000000D+00  0.00000000D+00  0.34514798D-06  0.34514798D-06 -0.69029597D-06
  0.00000000D+00  0.00000000D+00  0.00000000D+00  0.00000000D+00  0.00000000D+00
  0.84528772D-06  0.00000000D+00  0.00000000D+00 -0.12679316D-05  0.00000000D+00
  0.00000000D+00 -0.12679316D-05  0.00000000D+00  0.00000000D+00  0.00000000D+00
 -0.12364611D-05  0.00000000D+00  0.00000000D+00  0.18546916D-05  0.00000000D+00
  0.00000000D+00  0.18546916D-05  0.00000000D+00
MO    2     MO 0.0        OCC NO =    2.0000000  ORB. ENERGY = -104.900931
  0.43605070D+00  0.81580434D+00  0.14095289D+01  0.22850120D+01  0.34700100D+01
  0.48229875D+01  0.57341625D+01  0.51081912D+01  0.25368358D+01  0.40840910D+00
  0.43089572D-02 -0.11785672D-05 -0.39315030D-04 -0.13700501D-03 -0.49337722D-03
 -0.10875887D-02 -0.15309738D-02  0.73032442D-04  0.20035451D-02  0.11846837D-02
  0.83372768D-07  0.10098478D-05  0.21059312D-05  0.60394439D-05  0.31361991D-06
 -0.26045011D-04 -0.67295307D-04  0.54829049D-04 -0.20403481D-03 -0.93101323D-05
 -0.19164034D-05  0.00000000D+00  0.00000000D+00  0.00000000D+00  0.00000000D+00
  0.00000000D+00  0.00000000D+00  0.00000000D+00  0.00000000D+00  0.00000000D+00
  0.00000000D+00  0.00000000D+00  0.00000000D+00 -0.62254729D-03 -0.82004041D-03
 -0.90463294D-03 -0.75136848D-03 -0.39899751D-03 -0.10294344D-03  0.00000000D+00
 -0.00000000D+00 -0.00000000D+00 -0.00000000D+00  0.00000000D+00  0.00000000D+00
  0.00000000D+00 -0.00000000D+00 -0.00000000D+00 -0.00000000D+00  0.00000000D+00
  0.00000000D+00 -0.16655882D-05  0.16101835D-04  0.22705269D-04  0.32474541D-04
 -0.16444650D-06 -0.29782217D-04  0.00000000D+00  0.00000000D+00  0.72986544D-04
  0.00000000D+00  0.00000000D+00  0.39446504D-05  0.00000000D+00  0.00000000D+00
  0.96325021D-07 -0.21042976D-05 -0.21042976D-05  0.42085953D-05  0.00000000D+00
  0.00000000D+00  0.00000000D+00 -0.43755822D-05 -0.43755822D-05  0.87511643D-05
  0.00000000D+00  0.00000000D+00  0.00000000D+00  0.33978790D-06  0.33978790D-06
 -0.67957581D-06  0.00000000D+00  0.00000000D+00  0.00000000D+00  0.00000000D+00
  0.00000000D+00 -0.40304714D-05  0.00000000D+00  0.00000000D+00  0.60457071D-05
  0.00000000D+00  0.00000000D+00  0.60457071D-05  0.00000000D+00  0.00000000D+00
  0.00000000D+00 -0.10326790D-05  0.00000000D+00  0.00000000D+00  0.15490185D-05
  0.00000000D+00  0.00000000D+00  0.15490185D-05  0.00000000D+00 -0.43605070D+00
 -0.81580434D+00 -0.14095289D+01 -0.22850120D+01 -0.34700100D+01 -0.48229875D+01
 -0.57341625D+01 -0.51081912D+01 -0.25368358D+01 -0.40840910D+00 -0.43089572D-02
  0.11785672D-05  0.39315030D-04  0.13700501D-03  0.49337722D-03  0.10875887D-02
  0.15309738D-02 -0.73032442D-04 -0.20035451D-02 -0.11846837D-02 -0.83372768D-07
 -0.10098478D-05 -0.21059312D-05 -0.60394439D-05 -0.31361991D-06  0.26045011D-04
  0.67295307D-04 -0.54829049D-04  0.20403481D-03  0.93101323D-05  0.19164034D-05
  0.00000000D+00  0.00000000D+00  0.00000000D+00  0.00000000D+00  0.00000000D+00
  0.00000000D+00  0.00000000D+00  0.00000000D+00  0.00000000D+00  0.00000000D+00
  0.00000000D+00  0.00000000D+00 -0.62254729D-03 -0.82004041D-03 -0.90463294D-03
 -0.75136848D-03 -0.39899751D-03 -0.10294344D-03  0.00000000D+00 -0.00000000D+00
 -0.00000000D+00 -0.00000000D+00  0.00000000D+00  0.00000000D+00  0.00000000D+00
 -0.00000000D+00 -0.00000000D+00 -0.00000000D+00  0.00000000D+00  0.00000000D+00
 -0.16655882D-05  0.16101835D-04  0.22705269D-04  0.32474541D-04 -0.16444650D-06
 -0.29782217D-04  0.00000000D+00  0.00000000D+00  0.72986544D-04  0.00000000D+00
  0.00000000D+00  0.39446504D-05  0.00000000D+00  0.00000000D+00  0.96325021D-07
  0.21042976D-05  0.21042976D-05 -0.42085953D-05  0.00000000D+00  0.00000000D+00
  0.00000000D+00  0.43755822D-05  0.43755822D-05 -0.87511643D-05  0.00000000D+00
  0.00000000D+00  0.00000000D+00 -0.33978790D-06 -0.33978790D-06  0.67957581D-06
  0.00000000D+00  0.00000000D+00  0.00000000D+00  0.00000000D+00  0.00000000D+00
 -0.40304714D-05  0.00000000D+00  0.00000000D+00  0.60457071D-05  0.00000000D+00
  0.00000000D+00  0.60457071D-05  0.00000000D+00  0.00000000D+00  0.00000000D+00
 -0.10326790D-05  0.00000000D+00  0.00000000D+00  0.15490185D-05  0.00000000D+00
  0.00000000D+00  0.15490185D-05  0.00000000D+00
MO    3     MO 0.0        OCC NO =    2.0000000  ORB. ENERGY =  -10.621702
 -0.12267304D+00 -0.22950817D+00 -0.39653922D+00 -0.64283666D+00 -0.97620916D+00
 -0.13568389D+01 -0.16131775D+01 -0.14370745D+01 -0.71368160D+00 -0.11489670D+00
 -0.12122281D-02 -0.59146811D-03 -0.19730386D-01 -0.68756445D-01 -0.24760309D+00
 -0.54581020D+00 -0.76832461D+00  0.36651588D-01  0.10054862D+01  0.59453768D+00
 -0.35363575D-05 -0.42833926D-04 -0.89325636D-04 -0.25617037D-03 -0.13302571D-04
  0.11047309D-02  0.28544124D-02 -0.23256409D-02  0.39152010D-01  0.35874552D-03
 -0.24758951D-04  0.00000000D+00  0.00000000D+00  0.00000000D+00  0.00000000D+00
  0.00000000D+00  0.00000000D+00  0.00000000D+00  0.00000000D+00  0.00000000D+00
  0.00000000D+00  0.00000000D+00  0.00000000D+00 -0.41809950D-01 -0.55073485D-01
 -0.60754675D-01 -0.50461515D-01 -0.26796465D-01 -0.69136279D-02  0.00000000D+00
 -0.00000000D+00 -0.00000000D+00 -0.00000000D+00  0.00000000D+00  0.00000000D+00
  0.00000000D+00 -0.00000000D+00 -0.00000000D+00 -0.00000000D+00  0.00000000D+00
  0.00000000D+00  0.64311088D-05 -0.62171822D-04 -0.87668758D-04 -0.12538952D-03
  0.63495486D-06  0.11499401D-03  0.00000000D+00  0.00000000D+00 -0.14710961D-02
  0.00000000D+00  0.00000000D+00 -0.22011033D-04  0.00000000D+00  0.00000000D+00
 -0.12008281D-05 -0.62925517D-03 -0.62925517D-03  0.12585103D-02  0.00000000D+00
  0.00000000D+00  0.00000000D+00  0.55566796D-04  0.55566796D-04 -0.11113359D-03
  0.00000000D+00  0.00000000D+00  0.00000000D+00 -0.81270061D-05 -0.81270061D-05
  0.16254012D-04  0.00000000D+00  0.00000000D+00  0.00000000D+00  0.00000000D+00
  0.00000000D+00 -0.61945797D-04  0.00000000D+00  0.00000000D+00  0.92918695D-04
  0.00000000D+00  0.00000000D+00  0.92918695D-04  0.00000000D+00  0.00000000D+00
  0.00000000D+00 -0.45052715D-05  0.00000000D+00  0.00000000D+00  0.67579072D-05
  0.00000000D+00  0.00000000D+00  0.67579072D-05  0.00000000D+00 -0.12267304D+00
 -0.22950817D+00 -0.39653922D+00 -0.64283666D+00 -0.97620916D+00 -0.13568389D+01
 -0.16131775D+01 -0.14370745D+01 -0.71368160D+00 -0.11489670D+00 -0.12122281D-02
 -0.59146811D-03 -0.19730386D-01 -0.68756445D-01 -0.24760309D+00 -0.54581020D+00
 -0.76832461D+00  0.36651588D-01  0.10054862D+01  0.59453768D+00 -0.35363575D-05
 -0.42833926D-04 -0.89325636D-04 -0.25617037D-03 -0.13302571D-04  0.11047309D-02
  0.28544124D-02 -0.23256409D-02  0.39152010D-01  0.35874552D-03 -0.24758951D-04
  0.00000000D+00  0.00000000D+00  0.00000000D+00  0.00000000D+00  0.00000000D+00
  0.00000000D+00  0.00000000D+00  0.00000000D+00  0.00000000D+00  0.00000000D+00
  0.00000000D+00  0.00000000D+00  0.41809950D-01  0.55073485D-01  0.60754675D-01
  0.50461515D-01  0.26796465D-01  0.69136279D-02  0.00000000D+00 -0.00000000D+00
 -0.00000000D+00 -0.00000000D+00  0.00000000D+00  0.00000000D+00  0.00000000D+00
 -0.00000000D+00 -0.00000000D+00 -0.00000000D+00  0.00000000D+00  0.00000000D+00
 -0.64311088D-05  0.62171822D-04  0.87668758D-04  0.12538952D-03 -0.63495486D-06
 -0.11499401D-03  0.00000000D+00  0.00000000D+00  0.14710961D-02  0.00000000D+00
  0.00000000D+00  0.22011033D-04  0.00000000D+00  0.00000000D+00  0.12008281D-05
 -0.62925517D-03 -0.62925517D-03  0.12585103D-02  0.00000000D+00  0.00000000D+00
  0.00000000D+00  0.55566796D-04  0.55566796D-04 -0.11113359D-03  0.00000000D+00
  0.00000000D+00  0.00000000D+00 -0.81270061D-05 -0.81270061D-05  0.16254012D-04
  0.00000000D+00  0.00000000D+00  0.00000000D+00  0.00000000D+00  0.00000000D+00
  0.61945797D-04  0.00000000D+00  0.00000000D+00 -0.92918695D-04  0.00000000D+00
  0.00000000D+00 -0.92918695D-04  0.00000000D+00  0.00000000D+00  0.00000000D+00
  0.45052715D-05  0.00000000D+00  0.00000000D+00 -0.67579072D-05  0.00000000D+00
  0.00000000D+00 -0.67579072D-05  0.00000000D+00
MO    4     MO 0.0        OCC NO =    2.0000000  ORB. ENERGY =  -10.621539
 -0.12268187D+00 -0.22952468D+00 -0.39656774D+00 -0.64288291D+00 -0.97627938D+00
 -0.13569365D+01 -0.16132935D+01 -0.14371779D+01 -0.71373295D+00 -0.11490497D+00
 -0.12123153D-02 -0.59142518D-03 -0.19728954D-01 -0.68751455D-01 -0.24758512D+00
 -0.54577059D+00 -0.76826884D+00  0.36648928D-01  0.10054132D+01  0.59449453D+00
 -0.35927524D-05 -0.43517005D-04 -0.90750126D-04 -0.26025556D-03 -0.13514709D-04
  0.11223482D-02  0.28999322D-02 -0.23627282D-02  0.39512595D-01  0.31069829D-04
 -0.11203827D-03  0.00000000D+00  0.00000000D+00  0.00000000D+00  0.00000000D+00
  0.00000000D+00  0.00000000D+00  0.00000000D+00  0.00000000D+00  0.00000000D+00
  0.00000000D+00  0.00000000D+00  0.00000000D+00 -0.41229279D-01 -0.54308605D-01
 -0.59910893D-01 -0.49760688D-01 -0.26424306D-01 -0.68176090D-02  0.00000000D+00
 -0.00000000D+00 -0.00000000D+00 -0.00000000D+00  0.00000000D+00  0.00000000D+00
  0.00000000D+00 -0.00000000D+00 -0.00000000D+00 -0.00000000D+00  0.00000000D+00
  0.00000000D+00  0.45037503D-04 -0.43539360D-03 -0.61395042D-03 -0.87811151D-03
  0.44466331D-05  0.80531108D-03  0.00000000D+00  0.00000000D+00 -0.21329398D-02
  0.00000000D+00  0.00000000D+00  0.12964621D-03  0.00000000D+00  0.00000000D+00
  0.51264880D-05 -0.63429786D-03 -0.63429786D-03  0.12685957D-02  0.00000000D+00
  0.00000000D+00  0.00000000D+00  0.21558972D-03  0.21558972D-03 -0.43117943D-03
  0.00000000D+00  0.00000000D+00  0.00000000D+00  0.19970595D-05  0.19970595D-05
 -0.39941190D-05  0.00000000D+00  0.00000000D+00  0.00000000D+00  0.00000000D+00
  0.00000000D+00  0.78621185D-04  0.00000000D+00  0.00000000D+00 -0.11793178D-03
  0.00000000D+00  0.00000000D+00 -0.11793178D-03  0.00000000D+00  0.00000000D+00
  0.00000000D+00  0.45421132D-04  0.00000000D+00  0.00000000D+00 -0.68131698D-04
  0.00000000D+00  0.00000000D+00 -0.68131698D-04  0.00000000D+00  0.12268187D+00
  0.22952468D+00  0.39656774D+00  0.64288291D+00  0.97627938D+00  0.13569365D+01
  0.16132935D+01  0.14371779D+01  0.71373295D+00  0.11490497D+00  0.12123153D-02
  0.59142518D-03  0.19728954D-01  0.68751455D-01  0.24758512D+00  0.54577059D+00
  0.76826884D+00 -0.36648928D-01 -0.10054132D+01 -0.59449453D+00  0.35927524D-05
  0.43517005D-04  0.90750126D-04  0.26025556D-03  0.13514709D-04 -0.11223482D-02
 -0.28999322D-02  0.23627282D-02 -0.39512595D-01 -0.31069829D-04  0.11203827D-03
  0.00000000D+00  0.00000000D+00  0.00000000D+00  0.00000000D+00  0.00000000D+00
  0.00000000D+00  0.00000000D+00  0.00000000D+00  0.00000000D+00  0.00000000D+00
  0.00000000D+00  0.00000000D+00 -0.41229279D-01 -0.54308605D-01 -0.59910893D-01
 -0.49760688D-01 -0.26424306D-01 -0.68176090D-02  0.00000000D+00 -0.00000000D+00
 -0.00000000D+00 -0.00000000D+00  0.00000000D+00  0.00000000D+00  0.00000000D+00
 -0.00000000D+00 -0.00000000D+00 -0.00000000D+00  0.00000000D+00  0.00000000D+00
  0.45037503D-04 -0.43539360D-03 -0.61395042D-03 -0.87811151D-03  0.44466331D-05
  0.80531108D-03  0.00000000D+00  0.00000000D+00 -0.21329398D-02  0.00000000D+00
  0.00000000D+00  0.12964621D-03  0.00000000D+00  0.00000000D+00  0.51264880D-05
  0.63429786D-03  0.63429786D-03 -0.12685957D-02  0.00000000D+00  0.00000000D+00
  0.00000000D+00 -0.21558972D-03 -0.21558972D-03  0.43117943D-03  0.00000000D+00
  0.00000000D+00  0.00000000D+00 -0.19970595D-05 -0.19970595D-05  0.39941190D-05
  0.00000000D+00  0.00000000D+00  0.00000000D+00  0.00000000D+00  0.00000000D+00
  0.78621185D-04  0.00000000D+00  0.00000000D+00 -0.11793178D-03  0.00000000D+00
  0.00000000D+00 -0.11793178D-03  0.00000000D+00  0.00000000D+00  0.00000000D+00
  0.45421132D-04  0.00000000D+00  0.00000000D+00 -0.68131698D-04  0.00000000D+00
  0.00000000D+00 -0.68131698D-04  0.00000000D+00
MO    5     MO 0.0        OCC NO =    2.0000000  ORB. ENERGY =   -8.088765
 -0.72322549D-03 -0.13530777D-02 -0.23378182D-02 -0.37898779D-02 -0.57552933D-02
 -0.79993162D-02 -0.95105740D-02 -0.84723498D-02 -0.42075481D-02 -0.67737964D-03
 -0.71467554D-05 -0.40209777D-05 -0.13413308D-03 -0.46742695D-03 -0.16832801D-02
 -0.37105815D-02 -0.52233012D-02  0.24916849D-03  0.68355967D-02  0.40418456D-02
 -0.13258140D-06 -0.16058845D-05 -0.33489029D-05 -0.96040704D-05 -0.49872600D-06
  0.41417409D-04  0.10701463D-03 -0.87190485D-04 -0.43413121D-03  0.19439298D-03
 -0.50064368D-04  0.00000000D+00  0.00000000D+00  0.00000000D+00  0.00000000D+00
  0.00000000D+00  0.00000000D+00  0.00000000D+00  0.00000000D+00  0.00000000D+00
  0.00000000D+00  0.00000000D+00  0.00000000D+00  0.81504047D+01  0.10735990D+02
  0.11843477D+02  0.98369351D+01  0.52236855D+01  0.13477382D+01  0.00000000D+00
 -0.00000000D+00 -0.00000000D+00 -0.00000000D+00  0.00000000D+00  0.00000000D+00
  0.00000000D+00 -0.00000000D+00 -0.00000000D+00 -0.00000000D+00  0.00000000D+00
  0.00000000D+00 -0.11734341D-03  0.11344006D-02  0.15996232D-02  0.22878844D-02
 -0.11585525D-04 -0.20982058D-02  0.00000000D+00  0.00000000D+00  0.63288776D-01
  0.00000000D+00  0.00000000D+00  0.25308815D-03  0.00000000D+00  0.00000000D+00
 -0.11990830D-04  0.75915946D-03  0.75915946D-03 -0.15183189D-02  0.00000000D+00
  0.00000000D+00  0.00000000D+00 -0.46135445D-04 -0.46135445D-04  0.92270889D-04
  0.00000000D+00  0.00000000D+00  0.00000000D+00  0.18993903D-04  0.18993903D-04
 -0.37987806D-04  0.00000000D+00  0.00000000D+00  0.00000000D+00  0.00000000D+00
  0.00000000D+00  0.23421842D-03  0.00000000D+00  0.00000000D+00 -0.35132763D-03
  0.00000000D+00  0.00000000D+00 -0.35132763D-03  0.00000000D+00  0.00000000D+00
  0.00000000D+00 -0.11535990D-04  0.00000000D+00  0.00000000D+00  0.17303985D-04
  0.00000000D+00  0.00000000D+00  0.17303985D-04  0.00000000D+00 -0.72322549D-03
 -0.13530777D-02 -0.23378182D-02 -0.37898779D-02 -0.57552933D-02 -0.79993162D-02
 -0.95105740D-02 -0.84723498D-02 -0.42075481D-02 -0.67737964D-03 -0.71467554D-05
 -0.40209777D-05 -0.13413308D-03 -0.46742695D-03 -0.16832801D-02 -0.37105815D-02
 -0.52233012D-02  0.24916849D-03  0.68355967D-02  0.40418456D-02 -0.13258140D-06
 -0.16058845D-05 -0.33489029D-05 -0.96040704D-05 -0.49872600D-06  0.41417409D-04
  0.10701463D-03 -0.87190485D-04 -0.43413121D-03  0.19439298D-03 -0.50064368D-04
  0.00000000D+00  0.00000000D+00  0.00000000D+00  0.00000000D+00  0.00000000D+00
  0.00000000D+00  0.00000000D+00  0.00000000D+00  0.00000000D+00  0.00000000D+00
  0.00000000D+00  0.00000000D+00 -0.81504047D+01 -0.10735990D+02 -0.11843477D+02
 -0.98369351D+01 -0.52236855D+01 -0.13477382D+01  0.00000000D+00 -0.00000000D+00
 -0.00000000D+00 -0.00000000D+00  0.00000000D+00  0.00000000D+00  0.00000000D+00
 -0.00000000D+00 -0.00000000D+00 -0.00000000D+00  0.00000000D+00  0.00000000D+00
  0.11734341D-03 -0.11344006D-02 -0.15996232D-02 -0.22878844D-02  0.11585525D-04
  0.20982058D-02  0.00000000D+00  0.00000000D+00 -0.63288776D-01  0.00000000D+00
  0.00000000D+00 -0.25308815D-03  0.00000000D+00  0.00000000D+00  0.11990830D-04
  0.75915946D-03  0.75915946D-03 -0.15183189D-02  0.00000000D+00  0.00000000D+00
  0.00000000D+00 -0.46135445D-04 -0.46135445D-04  0.92270889D-04  0.00000000D+00
  0.00000000D+00  0.00000000D+00  0.18993903D-04  0.18993903D-04 -0.37987806D-04
  0.00000000D+00  0.00000000D+00  0.00000000D+00  0.00000000D+00  0.00000000D+00
 -0.23421842D-03  0.00000000D+00  0.00000000D+00  0.35132763D-03  0.00000000D+00
  0.00000000D+00  0.35132763D-03  0.00000000D+00  0.00000000D+00  0.00000000D+00
  0.11535990D-04  0.00000000D+00  0.00000000D+00 -0.17303985D-04  0.00000000D+00
  0.00000000D+00 -0.17303985D-04  0.00000000D+00
MO    6     MO 0.0        OCC NO =    2.0000000  ORB. ENERGY =   -8.088521
 -0.73191049D-03 -0.13693264D-02 -0.23658923D-02 -0.38353894D-02 -0.58244069D-02
 -0.80953776D-02 -0.96247837D-02 -0.85740917D-02 -0.42580753D-02 -0.68551409D-03
 -0.72325786D-05 -0.34762615D-05 -0.11596226D-03 -0.40410527D-03 -0.14552485D-02
 -0.32079142D-02 -0.45157079D-02  0.21541398D-03  0.59095880D-02  0.34943024D-02
 -0.13617460D-05 -0.16494070D-04 -0.34396644D-04 -0.98643586D-04 -0.51224241D-05
  0.42539898D-03  0.10991493D-02 -0.89553510D-03 -0.10723433D-02  0.21615223D-02
  0.19852494D-03  0.00000000D+00  0.00000000D+00  0.00000000D+00  0.00000000D+00
  0.00000000D+00  0.00000000D+00  0.00000000D+00  0.00000000D+00  0.00000000D+00
  0.00000000D+00  0.00000000D+00  0.00000000D+00  0.81483283D+01  0.10733255D+02
  0.11840460D+02  0.98344290D+01  0.52223547D+01  0.13473948D+01  0.00000000D+00
 -0.00000000D+00 -0.00000000D+00 -0.00000000D+00  0.00000000D+00  0.00000000D+00
  0.00000000D+00 -0.00000000D+00 -0.00000000D+00 -0.00000000D+00  0.00000000D+00
  0.00000000D+00 -0.22428935D-03  0.21682851D-02  0.30575084D-02  0.43730458D-02
 -0.22144488D-04 -0.40104954D-02  0.00000000D+00  0.00000000D+00  0.65426182D-01
  0.00000000D+00  0.00000000D+00 -0.63845225D-03  0.00000000D+00  0.00000000D+00
 -0.94639256D-05  0.93627835D-03  0.93627835D-03 -0.18725567D-02  0.00000000D+00
  0.00000000D+00  0.00000000D+00 -0.53946409D-03 -0.53946409D-03  0.10789282D-02
  0.00000000D+00  0.00000000D+00  0.00000000D+00 -0.46864964D-04 -0.46864964D-04
  0.93729928D-04  0.00000000D+00  0.00000000D+00  0.00000000D+00  0.00000000D+00
  0.00000000D+00  0.37282745D-04  0.00000000D+00  0.00000000D+00 -0.55924117D-04
  0.00000000D+00  0.00000000D+00 -0.55924117D-04  0.00000000D+00  0.00000000D+00
  0.00000000D+00 -0.20167083D-03  0.00000000D+00  0.00000000D+00  0.30250624D-03
  0.00000000D+00  0.00000000D+00  0.30250624D-03  0.00000000D+00  0.73191049D-03
  0.13693264D-02  0.23658923D-02  0.38353894D-02  0.58244069D-02  0.80953776D-02
  0.96247837D-02  0.85740917D-02  0.42580753D-02  0.68551409D-03  0.72325786D-05
  0.34762615D-05  0.11596226D-03  0.40410527D-03  0.14552485D-02  0.32079142D-02
  0.45157079D-02 -0.21541398D-03 -0.59095880D-02 -0.34943024D-02  0.13617460D-05
  0.16494070D-04  0.34396644D-04  0.98643586D-04  0.51224241D-05 -0.42539898D-03
 -0.10991493D-02  0.89553510D-03  0.10723433D-02 -0.21615223D-02 -0.19852494D-03
  0.00000000D+00  0.00000000D+00  0.00000000D+00  0.00000000D+00  0.00000000D+00
  0.00000000D+00  0.00000000D+00  0.00000000D+00  0.00000000D+00  0.00000000D+00
  0.00000000D+00  0.00000000D+00  0.81483283D+01  0.10733255D+02  0.11840460D+02
  0.98344290D+01  0.52223547D+01  0.13473948D+01  0.00000000D+00 -0.00000000D+00
 -0.00000000D+00 -0.00000000D+00  0.00000000D+00  0.00000000D+00  0.00000000D+00
 -0.00000000D+00 -0.00000000D+00 -0.00000000D+00  0.00000000D+00  0.00000000D+00
 -0.22428935D-03  0.21682851D-02  0.30575084D-02  0.43730458D-02 -0.22144488D-04
 -0.40104954D-02  0.00000000D+00  0.00000000D+00  0.65426182D-01  0.00000000D+00
  0.00000000D+00 -0.63845225D-03  0.00000000D+00  0.00000000D+00 -0.94639256D-05
 -0.93627835D-03 -0.93627835D-03  0.18725567D-02  0.00000000D+00  0.00000000D+00
  0.00000000D+00  0.53946409D-03  0.53946409D-03 -0.10789282D-02  0.00000000D+00
  0.00000000D+00  0.00000000D+00  0.46864964D-04  0.46864964D-04 -0.93729928D-04
  0.00000000D+00  0.00000000D+00  0.00000000D+00  0.00000000D+00  0.00000000D+00
  0.37282745D-04  0.00000000D+00  0.00000000D+00 -0.55924117D-04  0.00000000D+00
  0.00000000D+00 -0.55924117D-04  0.00000000D+00  0.00000000D+00  0.00000000D+00
 -0.20167083D-03  0.00000000D+00  0.00000000D+00  0.30250624D-03  0.00000000D+00
  0.00000000D+00  0.30250624D-03  0.00000000D+00
MO    7     MO 0.0        OCC NO =    2.0000000  ORB. ENERGY =   -8.085593
  0.00000000D+00  0.00000000D+00  0.00000000D+00  0.00000000D+00  0.00000000D+00
  0.00000000D+00  0.00000000D+00  0.00000000D+00  0.00000000D+00  0.00000000D+00
  0.00000000D+00 -0.00000000D+00 -0.00000000D+00 -0.00000000D+00 -0.00000000D+00
 -0.00000000D+00 -0.00000000D+00  0.00000000D+00  0.00000000D+00  0.00000000D+00
  0.00000000D+00  0.00000000D+00  0.00000000D+00  0.00000000D+00  0.00000000D+00
 -0.00000000D+00 -0.00000000D+00  0.00000000D+00  0.00000000D+00  0.00000000D+00
  0.00000000D+00  0.00000000D+00  0.00000000D+00  0.00000000D+00  0.00000000D+00
  0.00000000D+00  0.00000000D+00  0.81662068D+01  0.10756805D+02  0.11866439D+02
  0.98560070D+01  0.52338132D+01  0.13503512D+01  0.00000000D+00  0.00000000D+00
  0.00000000D+00  0.00000000D+00  0.00000000D+00  0.00000000D+00  0.00000000D+00
 -0.00000000D+00 -0.00000000D+00 -0.00000000D+00  0.00000000D+00  0.00000000D+00
 -0.87357249D-04  0.84451367D-03  0.11908524D-02  0.17032340D-02 -0.86249372D-05
 -0.15620262D-02  0.00000000D+00 -0.00000000D+00 -0.00000000D+00 -0.00000000D+00
  0.00000000D+00  0.00000000D+00  0.00000000D+00  0.58880340D-01  0.00000000D+00
  0.00000000D+00  0.15914041D-03  0.00000000D+00  0.00000000D+00 -0.10159334D-04
  0.00000000D+00  0.00000000D+00  0.00000000D+00  0.00000000D+00  0.00000000D+00
  0.00000000D+00 -0.17014898D-02  0.00000000D+00  0.00000000D+00  0.00000000D+00
  0.00000000D+00  0.00000000D+00  0.10644111D-03  0.00000000D+00  0.00000000D+00