 TITLE
GAUSSIAN             17 MOL ORBITALS    138 PRIMITIVES        2 NUCLEI
  Cl   1    (CENTRE  1)   0.00000000  0.00000000  1.88046647  CHARGE = 17.0
  Cl   2    (CENTRE  2)   0.00000000  0.00000000 -1.88046647  CHARGE = 17.0
CENTRE ASSIGNMENTS    1  1  1  1  1  1  1  1  1  1  1  1  1  1  1  1  1  1  1  1
CENTRE ASSIGNMENTS    1  1  1  1  1  1  1  1  1  1  1  1  1  1  1  1  1  1  1  1
CENTRE ASSIGNMENTS    1  1  1  1  1  1  1  1  1  1  1  1  1  1  1  1  1  1  1  1
CENTRE ASSIGNMENTS    1  1  1  1  1  1  1  1  1  2  2  2  2  2  2  2  2  2  2  2
CENTRE ASSIGNMENTS    2  2  2  2  2  2  2  2  2  2  2  2  2  2  2  2  2  2  2  2
CENTRE ASSIGNMENTS    2  2  2  2  2  2  2  2  2  2  2  2  2  2  2  2  2  2  2  2
CENTRE ASSIGNMENTS    2  2  2  2  2  2  2  2  2  2  2  2  2  2  2  2  2  2
TYPE ASSIGNMENTS      1  1  1  1  1  1  1  1  1  1  1  1  1  1  2  2  2  2  2  3
TYPE ASSIGNMENTS      3  3  3  3  4  4  4  4  4  2  3  4  2  3  4  2  3  4  2  3
TYPE ASSIGNMENTS      4  5  5  6  6  7  7  8  8  9  9 10 10  5  6  7  8  9 10 11
TYPE ASSIGNMENTS     12 13 17 14 15 18 19 16 20  1  1  1  1  1  1  1  1  1  1  1
TYPE ASSIGNMENTS      1  1  1  2  2  2  2  2  3  3  3  3  3  4  4  4  4  4  2  3
TYPE ASSIGNMENTS      4  2  3  4  2  3  4  2  3  4  5  5  6  6  7  7  8  8  9  9
TYPE ASSIGNMENTS     10 10  5  6  7  8  9 10 11 12 13 17 14 15 18 19 16 20
EXPONENTS  0.6950799D+05 0.1042616D+05 0.2373233D+04 0.6715642D+03 0.2184200D+03
EXPONENTS  0.7757225D+02 0.2888882D+02 0.1271053D+03 0.3933958D+02 0.7674068D+01
EXPONENTS  0.3874563D+01 0.1838583D+01 0.5022906D+00 0.1796272D+00 0.6665042D+03
EXPONENTS  0.1576424D+03 0.5026252D+02 0.1853608D+02 0.7294053D+01 0.6665042D+03
EXPONENTS  0.1576424D+03 0.5026252D+02 0.1853608D+02 0.7294053D+01 0.6665042D+03
EXPONENTS  0.1576424D+03 0.5026252D+02 0.1853608D+02 0.7294053D+01 0.2943325D+01
EXPONENTS  0.2943325D+01 0.2943325D+01 0.1040497D+01 0.1040497D+01 0.1040497D+01
EXPONENTS  0.3845642D+00 0.3845642D+00 0.3845642D+00 0.1306964D+00 0.1306964D+00
EXPONENTS  0.1306964D+00 0.4610000D+01 0.1011000D+01 0.4610000D+01 0.1011000D+01
EXPONENTS  0.4610000D+01 0.1011000D+01 0.4610000D+01 0.1011000D+01 0.4610000D+01
EXPONENTS  0.1011000D+01 0.4610000D+01 0.1011000D+01 0.3390000D+00 0.3390000D+00
EXPONENTS  0.3390000D+00 0.3390000D+00 0.3390000D+00 0.3390000D+00 0.7060000D+00
EXPONENTS  0.7060000D+00 0.7060000D+00 0.7060000D+00 0.7060000D+00 0.7060000D+00
EXPONENTS  0.7060000D+00 0.7060000D+00 0.7060000D+00 0.7060000D+00 0.6950799D+05
EXPONENTS  0.1042616D+05 0.2373233D+04 0.6715642D+03 0.2184200D+03 0.7757225D+02
EXPONENTS  0.2888882D+02 0.1271053D+03 0.3933958D+02 0.7674068D+01 0.3874563D+01
EXPONENTS  0.1838583D+01 0.5022906D+00 0.1796272D+00 0.6665042D+03 0.1576424D+03
EXPONENTS  0.5026252D+02 0.1853608D+02 0.7294053D+01 0.6665042D+03 0.1576424D+03
EXPONENTS  0.5026252D+02 0.1853608D+02 0.7294053D+01 0.6665042D+03 0.1576424D+03
EXPONENTS  0.5026252D+02 0.1853608D+02 0.7294053D+01 0.2943325D+01 0.2943325D+01
EXPONENTS  0.2943325D+01 0.1040497D+01 0.1040497D+01 0.1040497D+01 0.3845642D+00
EXPONENTS  0.3845642D+00 0.3845642D+00 0.1306964D+00 0.1306964D+00 0.1306964D+00
EXPONENTS  0.4610000D+01 0.1011000D+01 0.4610000D+01 0.1011000D+01 0.4610000D+01
EXPONENTS  0.1011000D+01 0.4610000D+01 0.1011000D+01 0.4610000D+01 0.1011000D+01
EXPONENTS  0.4610000D+01 0.1011000D+01 0.3390000D+00 0.3390000D+00 0.3390000D+00
EXPONENTS  0.3390000D+00 0.3390000D+00 0.3390000D+00 0.7060000D+00 0.7060000D+00
EXPONENTS  0.7060000D+00 0.7060000D+00 0.7060000D+00 0.7060000D+00 0.7060000D+00
EXPONENTS  0.7060000D+00 0.7060000D+00 0.7060000D+00
MO    1     MO 0.0        OCC NO =    2.0000000  ORB. ENERGY = -104.894352
  0.11096330D+01  0.20676556D+01  0.35037684D+01  0.53261629D+01  0.67128358D+01
  0.58650051D+01  0.22262574D+01 -0.63742863D-01 -0.11329299D+00  0.84503636D-01
 -0.68228168D-02 -0.20262218D-02  0.78420331D-03 -0.31117877D-03  0.00000000D+00
  0.00000000D+00  0.00000000D+00  0.00000000D+00  0.00000000D+00  0.00000000D+00
  0.00000000D+00  0.00000000D+00  0.00000000D+00  0.00000000D+00 -0.10980458D-02
 -0.14468763D-02 -0.16012441D-02 -0.13342891D-02 -0.71552693D-03  0.00000000D+00
  0.00000000D+00  0.28852922D-03  0.00000000D+00  0.00000000D+00 -0.89769219D-04
  0.00000000D+00  0.00000000D+00  0.43124782D-04  0.00000000D+00  0.00000000D+00
  0.64889595D-04 -0.11700806D-03 -0.41117215D-04 -0.11700806D-03 -0.41117215D-04
  0.23401612D-03  0.82234430D-04  0.00000000D+00  0.00000000D+00  0.00000000D+00
  0.00000000D+00  0.00000000D+00  0.00000000D+00  0.30190280D-04  0.30190280D-04
 -0.60380559D-04  0.00000000D+00  0.00000000D+00  0.00000000D+00  0.00000000D+00
  0.00000000D+00  0.86586186D-05  0.00000000D+00  0.00000000D+00 -0.12987928D-04
  0.00000000D+00  0.00000000D+00 -0.12987928D-04  0.00000000D+00 -0.11096330D+01
 -0.20676556D+01 -0.35037684D+01 -0.53261629D+01 -0.67128358D+01 -0.58650051D+01
 -0.22262574D+01  0.63742863D-01  0.11329299D+00 -0.84503636D-01  0.68228168D-02
  0.20262218D-02 -0.78420331D-03  0.31117877D-03  0.00000000D+00  0.00000000D+00
  0.00000000D+00  0.00000000D+00  0.00000000D+00  0.00000000D+00  0.00000000D+00
  0.00000000D+00  0.00000000D+00  0.00000000D+00 -0.10980458D-02 -0.14468763D-02
 -0.16012441D-02 -0.13342891D-02 -0.71552693D-03  0.00000000D+00  0.00000000D+00
  0.28852922D-03  0.00000000D+00  0.00000000D+00 -0.89769219D-04  0.00000000D+00
  0.00000000D+00  0.43124782D-04  0.00000000D+00  0.00000000D+00  0.64889595D-04
  0.11700806D-03  0.41117215D-04  0.11700806D-03  0.41117215D-04 -0.23401612D-03
 -0.82234430D-04  0.00000000D+00  0.00000000D+00  0.00000000D+00  0.00000000D+00
  0.00000000D+00  0.00000000D+00 -0.30190280D-04 -0.30190280D-04  0.60380559D-04
  0.00000000D+00  0.00000000D+00  0.00000000D+00  0.00000000D+00  0.00000000D+00
  0.86586186D-05  0.00000000D+00  0.00000000D+00 -0.12987928D-04  0.00000000D+00
  0.00000000D+00 -0.12987928D-04  0.00000000D+00
MO    2     MO 0.0        OCC NO =    2.0000000  ORB. ENERGY = -104.894349
  0.11096023D+01  0.20675984D+01  0.35036715D+01  0.53260156D+01  0.67126502D+01
  0.58648429D+01  0.22261958D+01 -0.63587984D-01 -0.11301772D+00  0.84298314D-01
 -0.66783202D-02 -0.19833096D-02  0.61582069D-03 -0.11047852D-03  0.00000000D+00
  0.00000000D+00  0.00000000D+00  0.00000000D+00  0.00000000D+00  0.00000000D+00
  0.00000000D+00  0.00000000D+00  0.00000000D+00  0.00000000D+00 -0.12002258D-02
 -0.15815171D-02 -0.17502498D-02 -0.14584530D-02 -0.78211115D-03  0.00000000D+00
  0.00000000D+00  0.38471882D-03  0.00000000D+00  0.00000000D+00 -0.92497544D-04
  0.00000000D+00  0.00000000D+00 -0.15230362D-04  0.00000000D+00  0.00000000D+00
  0.52440107D-05 -0.13823595D-03 -0.48576802D-04 -0.13823595D-03 -0.48576802D-04
  0.27647191D-03  0.97153604D-04  0.00000000D+00  0.00000000D+00  0.00000000D+00
  0.00000000D+00  0.00000000D+00  0.00000000D+00  0.11756984D-04  0.11756984D-04
 -0.23513968D-04  0.00000000D+00  0.00000000D+00  0.00000000D+00  0.00000000D+00
  0.00000000D+00  0.31729858D-04  0.00000000D+00  0.00000000D+00 -0.47594788D-04
  0.00000000D+00  0.00000000D+00 -0.47594788D-04  0.00000000D+00  0.11096023D+01
  0.20675984D+01  0.35036715D+01  0.53260156D+01  0.67126502D+01  0.58648429D+01
  0.22261958D+01 -0.63587984D-01 -0.11301772D+00  0.84298314D-01 -0.66783202D-02
 -0.19833096D-02  0.61582069D-03 -0.11047852D-03  0.00000000D+00  0.00000000D+00
  0.00000000D+00  0.00000000D+00  0.00000000D+00  0.00000000D+00  0.00000000D+00
  0.00000000D+00  0.00000000D+00  0.00000000D+00  0.12002258D-02  0.15815171D-02
  0.17502498D-02  0.14584530D-02  0.78211115D-03  0.00000000D+00  0.00000000D+00
 -0.38471882D-03  0.00000000D+00  0.00000000D+00  0.92497544D-04  0.00000000D+00
  0.00000000D+00  0.15230362D-04  0.00000000D+00  0.00000000D+00 -0.52440107D-05
 -0.13823595D-03 -0.48576802D-04 -0.13823595D-03 -0.48576802D-04  0.27647191D-03
  0.97153604D-04  0.00000000D+00  0.00000000D+00  0.00000000D+00  0.00000000D+00
  0.00000000D+00  0.00000000D+00  0.11756984D-04  0.11756984D-04 -0.23513968D-04
  0.00000000D+00  0.00000000D+00  0.00000000D+00  0.00000000D+00  0.00000000D+00
 -0.31729858D-04  0.00000000D+00  0.00000000D+00  0.47594788D-04  0.00000000D+00
  0.00000000D+00  0.47594788D-04  0.00000000D+00
MO    3     MO 0.0        OCC NO =    2.0000000  ORB. ENERGY =  -10.619120
 -0.32441032D+00 -0.60449612D+00 -0.10243555D+01 -0.15571475D+01 -0.19625528D+01
 -0.17146825D+01 -0.65086466D+00 -0.48689482D+00 -0.86537958D+00  0.64547434D+00
  0.77555621D+00  0.23032259D+00  0.43954952D-02 -0.20879584D-03  0.00000000D+00
  0.00000000D+00  0.00000000D+00  0.00000000D+00  0.00000000D+00  0.00000000D+00
  0.00000000D+00  0.00000000D+00  0.00000000D+00  0.00000000D+00 -0.34871247D-01
 -0.45949248D-01 -0.50851592D-01 -0.42373755D-01 -0.22723384D-01  0.00000000D+00
  0.00000000D+00 -0.98854269D-02  0.00000000D+00  0.00000000D+00 -0.59058056D-03
  0.00000000D+00  0.00000000D+00 -0.16267634D-03  0.00000000D+00  0.00000000D+00
  0.24435194D-04 -0.19356300D-02 -0.68019002D-03 -0.19356300D-02 -0.68019002D-03
  0.38712600D-02  0.13603800D-02  0.00000000D+00  0.00000000D+00  0.00000000D+00
  0.00000000D+00  0.00000000D+00  0.00000000D+00  0.73667618D-04  0.73667618D-04
 -0.14733524D-03  0.00000000D+00  0.00000000D+00  0.00000000D+00  0.00000000D+00
  0.00000000D+00  0.13960365D-04  0.00000000D+00  0.00000000D+00 -0.20940547D-04
  0.00000000D+00  0.00000000D+00 -0.20940547D-04  0.00000000D+00 -0.32441032D+00
 -0.60449612D+00 -0.10243555D+01 -0.15571475D+01 -0.19625528D+01 -0.17146825D+01
 -0.65086466D+00 -0.48689482D+00 -0.86537958D+00  0.64547434D+00  0.77555621D+00
  0.23032259D+00  0.43954952D-02 -0.20879584D-03  0.00000000D+00  0.00000000D+00
  0.00000000D+00  0.00000000D+00  0.00000000D+00  0.00000000D+00  0.00000000D+00
  0.00000000D+00  0.00000000D+00  0.00000000D+00  0.34871247D-01  0.45949248D-01
  0.50851592D-01  0.42373755D-01  0.22723384D-01  0.00000000D+00  0.00000000D+00
  0.98854269D-02  0.00000000D+00  0.00000000D+00  0.59058056D-03  0.00000000D+00
  0.00000000D+00  0.16267634D-03  0.00000000D+00  0.00000000D+00 -0.24435194D-04
 -0.19356300D-02 -0.68019002D-03 -0.19356300D-02 -0.68019002D-03  0.38712600D-02
  0.13603800D-02  0.00000000D+00  0.00000000D+00  0.00000000D+00  0.00000000D+00
  0.00000000D+00  0.00000000D+00  0.73667618D-04  0.73667618D-04 -0.14733524D-03
  0.00000000D+00  0.00000000D+00  0.00000000D+00  0.00000000D+00  0.00000000D+00
 -0.13960365D-04  0.00000000D+00  0.00000000D+00  0.20940547D-04  0.00000000D+00
  0.00000000D+00  0.20940547D-04  0.00000000D+00
MO    4     MO 0.0        OCC NO =    2.0000000  ORB. ENERGY =  -10.618953
 -0.32441069D+00 -0.60449680D+00 -0.10243567D+01 -0.15571493D+01 -0.19625550D+01
 -0.17146844D+01 -0.65086540D+00 -0.48700287D+00 -0.86557163D+00  0.64561759D+00
  0.77553517D+00  0.23031635D+00  0.46373692D-02 -0.64421613D-03  0.00000000D+00
  0.00000000D+00  0.00000000D+00  0.00000000D+00  0.00000000D+00  0.00000000D+00
  0.00000000D+00  0.00000000D+00  0.00000000D+00  0.00000000D+00 -0.35435378D-01
 -0.46692594D-01 -0.51674246D-01 -0.43059259D-01 -0.23090992D-01  0.00000000D+00
  0.00000000D+00 -0.10076987D-01  0.00000000D+00  0.00000000D+00 -0.52836588D-03
  0.00000000D+00  0.00000000D+00  0.13305359D-03  0.00000000D+00  0.00000000D+00
  0.14132651D-03 -0.17573838D-02 -0.61755340D-03 -0.17573838D-02 -0.61755340D-03
  0.35147675D-02  0.12351068D-02  0.00000000D+00  0.00000000D+00  0.00000000D+00
  0.00000000D+00  0.00000000D+00  0.00000000D+00  0.12267555D-03  0.12267555D-03
 -0.24535109D-03  0.00000000D+00  0.00000000D+00  0.00000000D+00  0.00000000D+00
  0.00000000D+00 -0.47193189D-05  0.00000000D+00  0.00000000D+00  0.70789783D-05
  0.00000000D+00  0.00000000D+00  0.70789783D-05  0.00000000D+00  0.32441069D+00
  0.60449680D+00  0.10243567D+01  0.15571493D+01  0.19625550D+01  0.17146844D+01
  0.65086540D+00  0.48700287D+00  0.86557163D+00 -0.64561759D+00 -0.77553517D+00
 -0.23031635D+00 -0.46373692D-02  0.64421613D-03  0.00000000D+00  0.00000000D+00
  0.00000000D+00  0.00000000D+00  0.00000000D+00  0.00000000D+00  0.00000000D+00
  0.00000000D+00  0.00000000D+00  0.00000000D+00 -0.35435378D-01 -0.46692594D-01
 -0.51674246D-01 -0.43059259D-01 -0.23090992D-01  0.00000000D+00  0.00000000D+00
 -0.10076987D-01  0.00000000D+00  0.00000000D+00 -0.52836588D-03  0.00000000D+00
  0.00000000D+00  0.13305359D-03  0.00000000D+00  0.00000000D+00  0.14132651D-03
  0.17573838D-02  0.61755340D-03  0.17573838D-02  0.61755340D-03 -0.35147675D-02
 -0.12351068D-02  0.00000000D+00  0.00000000D+00  0.00000000D+00  0.00000000D+00
  0.00000000D+00  0.00000000D+00 -0.12267555D-03 -0.12267555D-03  0.24535109D-03
  0.00000000D+00  0.00000000D+00  0.00000000D+00  0.00000000D+00  0.00000000D+00
 -0.47193189D-05  0.00000000D+00  0.00000000D+00  0.70789783D-05  0.00000000D+00
  0.00000000D+00  0.70789783D-05  0.00000000D+00
MO    5     MO 0.0        OCC NO =    2.0000000  ORB. ENERGY =   -8.086048
 -0.17433421D-02 -0.32484895D-02 -0.55047635D-02 -0.83679238D-02 -0.10546523D-01
 -0.92144977D-02 -0.34976685D-02 -0.36533661D-02 -0.64932883D-02  0.48432516D-02
  0.45576192D-02  0.13535095D-02 -0.44494833D-03  0.81099130D-04  0.00000000D+00
  0.00000000D+00  0.00000000D+00  0.00000000D+00  0.00000000D+00  0.00000000D+00
  0.00000000D+00  0.00000000D+00  0.00000000D+00  0.00000000D+00  0.80870505D+01
  0.10656169D+02  0.11793080D+02  0.98269701D+01  0.52698188D+01  0.00000000D+00
  0.00000000D+00  0.13688287D+01  0.00000000D+00  0.00000000D+00  0.65333847D-01
  0.00000000D+00  0.00000000D+00 -0.16104572D-02  0.00000000D+00  0.00000000D+00
  0.14687137D-03  0.19782262D-02  0.69515853D-03  0.19782262D-02  0.69515853D-03
 -0.39564524D-02 -0.13903171D-02  0.00000000D+00  0.00000000D+00  0.00000000D+00
  0.00000000D+00  0.00000000D+00  0.00000000D+00 -0.16986018D-04 -0.16986018D-04
  0.33972036D-04  0.00000000D+00  0.00000000D+00  0.00000000D+00  0.00000000D+00
  0.00000000D+00  0.12022629D-03  0.00000000D+00  0.00000000D+00 -0.18033943D-03
  0.00000000D+00  0.00000000D+00 -0.18033943D-03  0.00000000D+00 -0.17433421D-02
 -0.32484895D-02 -0.55047635D-02 -0.83679238D-02 -0.10546523D-01 -0.92144977D-02
 -0.34976685D-02 -0.36533661D-02 -0.64932883D-02  0.48432516D-02  0.45576192D-02
  0.13535095D-02 -0.44494833D-03  0.81099130D-04  0.00000000D+00  0.00000000D+00
  0.00000000D+00  0.00000000D+00  0.00000000D+00  0.00000000D+00  0.00000000D+00
  0.00000000D+00  0.00000000D+00  0.00000000D+00 -0.80870505D+01 -0.10656169D+02
 -0.11793080D+02 -0.98269701D+01 -0.52698188D+01  0.00000000D+00  0.00000000D+00
 -0.13688287D+01  0.00000000D+00  0.00000000D+00 -0.65333847D-01  0.00000000D+00
  0.00000000D+00  0.16104572D-02  0.00000000D+00  0.00000000D+00 -0.14687137D-03
  0.19782262D-02  0.69515853D-03  0.19782262D-02  0.69515853D-03 -0.39564524D-02
 -0.13903171D-02  0.00000000D+00  0.00000000D+00  0.00000000D+00  0.00000000D+00
  0.00000000D+00  0.00000000D+00 -0.16986018D-04 -0.16986018D-04  0.33972036D-04
  0.00000000D+00  0.00000000D+00  0.00000000D+00  0.00000000D+00  0.00000000D+00
 -0.12022629D-03  0.00000000D+00  0.00000000D+00  0.18033943D-03  0.00000000D+00
  0.00000000D+00  0.18033943D-03  0.00000000D+00
MO    6     MO 0.0        OCC NO =    2.0000000  ORB. ENERGY =   -8.085780
 -0.16606544D-02 -0.30944119D-02 -0.52436696D-02 -0.79710286D-02 -0.10046296D-01
 -0.87774490D-02 -0.33317721D-02 -0.36193010D-02 -0.64327430D-02  0.47980916D-02
  0.42796086D-02  0.12709466D-02 -0.99980690D-03  0.88016901D-03  0.00000000D+00
  0.00000000D+00  0.00000000D+00  0.00000000D+00  0.00000000D+00  0.00000000D+00
  0.00000000D+00  0.00000000D+00  0.00000000D+00  0.00000000D+00  0.80890793D+01
  0.10658842D+02  0.11796038D+02  0.98294355D+01  0.52711409D+01  0.00000000D+00
  0.00000000D+00  0.13681021D+01  0.00000000D+00  0.00000000D+00  0.66711372D-01
  0.00000000D+00  0.00000000D+00 -0.28219977D-02  0.00000000D+00  0.00000000D+00
 -0.59074092D-04  0.20326189D-02  0.71427241D-03  0.20326189D-02  0.71427241D-03
 -0.40652379D-02 -0.14285448D-02  0.00000000D+00  0.00000000D+00  0.00000000D+00
  0.00000000D+00  0.00000000D+00  0.00000000D+00 -0.30372388D-03 -0.30372388D-03
  0.60744775D-03  0.00000000D+00  0.00000000D+00  0.00000000D+00  0.00000000D+00
  0.00000000D+00 -0.27698458D-03  0.00000000D+00  0.00000000D+00  0.41547687D-03
  0.00000000D+00  0.00000000D+00  0.41547687D-03  0.00000000D+00  0.16606544D-02
  0.30944119D-02  0.52436696D-02  0.79710286D-02  0.10046296D-01  0.87774490D-02
  0.33317721D-02  0.36193010D-02  0.64327430D-02 -0.47980916D-02 -0.42796086D-02
 -0.12709466D-02  0.99980690D-03 -0.88016901D-03  0.00000000D+00  0.00000000D+00
  0.00000000D+00  0.00000000D+00  0.00000000D+00  0.00000000D+00  0.00000000D+00
  0.00000000D+00  0.00000000D+00  0.00000000D+00  0.80890793D+01  0.10658842D+02
  0.11796038D+02  0.98294355D+01  0.52711409D+01  0.00000000D+00  0.00000000D+00
  0.13681021D+01  0.00000000D+00  0.00000000D+00  0.66711372D-01  0.00000000D+00
  0.00000000D+00 -0.28219977D-02  0.00000000D+00  0.00000000D+00 -0.59074092D-04
 -0.20326189D-02 -0.71427241D-03 -0.20326189D-02 -0.71427241D-03  0.40652379D-02
  0.14285448D-02  0.00000000D+00  0.00000000D+00  0.00000000D+00  0.00000000D+00
  0.00000000D+00  0.00000000D+00  0.30372388D-03  0.30372388D-03 -0.60744775D-03
  0.00000000D+00  0.00000000D+00  0.00000000D+00  0.00000000D+00  0.00000000D+00
 -0.27698458D-03  0.00000000D+00  0.00000000D+00  0.41547687D-03  0.00000000D+00
  0.00000000D+00  0.41547687D-03  0.00000000D+00
MO    7     MO 0.0        OCC NO =    2.0000000  ORB. ENERGY =   -8.083441
  0.00000000D+00  0.00000000D+00  0.00000000D+00  0.00000000D+00  0.00000000D+00
  0.00000000D+00  0.00000000D+00  0.00000000D+00  0.00000000D+00 -0.00000000D+00
  0.00000000D+00  0.00000000D+00  0.00000000D+00  0.00000000D+00  0.00000000D+00
  0.00000000D+00  0.00000000D+00  0.00000000D+00  0.00000000D+00  0.81143356D+01
  0.10692122D+02  0.11832869D+02  0.98601256D+01  0.52875988D+01  0.00000000D+00
  0.00000000D+00  0.00000000D+00  0.00000000D+00  0.00000000D+00  0.00000000D+00
  0.13633718D+01  0.00000000D+00  0.00000000D+00  0.63072799D-01  0.00000000D+00
  0.00000000D+00 -0.15938714D-02  0.00000000D+00  0.00000000D+00  0.12606319D-03
  0.00000000D+00  0.00000000D+00  0.00000000D+00  0.00000000D+00  0.00000000D+00
  0.00000000D+00  0.00000000D+00  0.00000000D+00  0.00000000D+00  0.00000000D+00
  0.00000000D+00 -0.52909577D-02 -0.18592689D-02  0.00000000D+00  0.00000000D+00
  0.00000000D+00  0.00000000D+00  0.00000000D+00  0.10153266D-03  0.00000000D+00
 -0.86440787D-04  0.00000000D+00  0.00000000D+00 -0.86440787D-04  0.00000000D+00
  0.00000000D+00  0.34576315D-03  0.00000000D+00  0.00000000D+00  0.00000000D+00
  0.00000000D+00  0.00000000D+00  0.00000000D+00  0.00000000D+00  0.00000000D+00
  0.00000000D+00  0.00000000D+00  0.00000000D+00 -0.00000000D+00  0.00000000D+00
  0.00000000D+00  0.00000000D+00  0.00000000D+00  0.00000000D+00  0.00000000D+00
  0.00000000D+00  0.00000000D+00  0.00000000D+00  0.81143356D+01  0.10692122D+02
  0.11832869D+02  0.98601256D+01  0.52875988D+01  0.00000000D+00  0.00000000D+00
  0.00000000D+00  0.00000000D+00  0.00000000D+00  0.00000000D+00  0.13633718D+01
  0.00000000D+00  0.00000000D+00  0.63072799D-01  0.00000000D+00  0.00000000D+00
 -0.15938714D-02  0.00000000D+00  0.00000000D+00  0.12606319D-03  0.00000000D+00
  0.00000000D+00  0.00000000D+00  0.00000000D+00  0.00000000D+00  0.00000000D+00
  0.00000000D+00  0.00000000D+00  0.00000000D+00  0.00000000D+00  0.00000000D+00
  0.52909577D-02  0.18592689D-02  0.00000000D+00  0.00000000D+00  0.00000000D+00
  0.00000000D+00  0.00000000D+00 -0.10153266D-03  0.00000000D+00 -0.86440787D-04
  0.00000000D+00  0.00000000D+00 -0.86440787D-04  0.00000000D+00  0.00000000D+00
  0.34576315D-03  0.00000000D+00  0.00000000D+00
MO    8     MO 0.0        OCC NO =    2.0000000  ORB. ENERGY =   -8.083441
  0.00000000D+00  0.00000000D+00  0.00000000D+00  0.00000000D+00  0.00000000D+00
  0.00000000D+00  0.00000000D+00  0.00000000D+00  0.00000000D+00 -0.00000000D+00
  0.00000000D+00  0.00000000D+00  0.00000000D+00  0.00000000D+00  0.81143356D+01
  0.10692122D+02  0.11832869D+02  0.98601256D+01  0.52875988D+01  0.00000000D+00
  0.00000000D+00  0.00000000D+00  0.00000000D+00  0.00000000D+00  0.00000000D+00
  0.00000000D+00  0.00000000D+00  0.00000000D+00  0.00000000D+00  0.13633718D+01
  0.00000000D+00  0.00000000D+00  0.63072799D-01  0.00000000D+00  0.00000000D+00
 -0.15938714D-02  0.00000000D+00  0.00000000D+00  0.12606319D-03  0.00000000D+00
  0.00000000D+00  0.00000000D+00  0.00000000D+00  0.00000000D+00  0.00000000D+00
  0.00000000D+00  0.00000000D+00  0.00000000D+00  0.00000000D+00 -0.52909577D-02
 -0.18592689D-02  0.00000000D+00  0.00000000D+00  0.00000000D+00  0.00000000D+00
  0.00000000D+00  0.00000000D+00  0.10153266D-03  0.00000000D+00 -0.86440787D-04
  0.00000000D+00  0.00000000D+00 -0.86440787D-04  0.00000000D+00  0.00000000D+00
  0.34576315D-03  0.00000000D+00  0.00000000D+00  0.00000000D+00  0.00000000D+00
  0.00000000D+00  0.00000000D+00  0.00000000D+00  0.00000000D+00  0.00000000D+00
  0.00000000D+00  0.00000000D+00  0.00000000D+00 -0.00000000D+00  0.00000000D+00
  0.00000000D+00  0.00000000D+00  0.00000000D+00  0.81143356D+01  0.10692122D+02
  0.11832869D+02  0.98601256D+01  0.52875988D+01  0.00000000D+00  0.00000000D+00
  0.00000000D+00  0.00000000D+00  0.00000000D+00  0.00000000D+00  0.00000000D+00
  0.00000000D+00  0.00000000D+00  0.00000000D+00  0.13633718D+01  0.00000000D+00
  0.00000000D+00  0.63072799D-01  0.00000000D+00  0.00000000D+00 -0.15938714D-02
  0.00000000D+00  0.00000000D+00  0.12606319D-03  0.00000000D+00  0.00000000D+00
  0.00000000D+00  0.00000000D+00  0.00000000D+00  0.00000000D+00  0.00000000D+00
  0.00000000D+00  0.00000000D+00  0.00000000D+00  0.52909577D-02  0.18592689D-02
  0.00000000D+00  0.00000000D+00  0.00000000D+00  0.00000000D+00  0.00000000D+00
  0.00000000D+00 -0.10153266D-03  0.00000000D+00 -0.86440787D-04  0.00000000D+00
  0.00000000D+00 -0.86440787D-04  0.00000000D+00  0.00000000D+00  0.34576315D-03
  0.00000000D+00  0.00000000D+00  0.00000000D+00
MO    9     MO 0.0        OCC NO =    2.0000000  ORB. ENERGY =   -8.083434
  0.00000000D+00  0.00000000D+00  0.00000000D+00  0.00000000D+00  0.00000000D+00
  0.00000000D+00  0.00000000D+00  0.00000000D+00  0.00000000D+00 -0.00000000D+00
  0.00000000D+00  0.00000000D+00  0.00000000D+00  0.00000000D+00  0.81147542D+01
  0.10692673D+02  0.11833479D+02  0.98606342D+01  0.52878716D+01  0.00000000D+00
  0.00000000D+00  0.00000000D+00  0.00000000D+00  0.00000000D+00  0.00000000D+00
  0.00000000D+00  0.00000000D+00  0.00000000D+00  0.00000000D+00  0.13631469D+01
  0.00000000D+00  0.00000000D+00  0.63302141D-01  0.00000000D+00  0.00000000D+00
 -0.17405873D-02  0.00000000D+00  0.00000000D+00  0.15414065D-03  0.00000000D+00
  0.00000000D+00  0.00000000D+00  0.00000000D+00  0.00000000D+00  0.00000000D+00
  0.00000000D+00  0.00000000D+00  0.00000000D+00  0.00000000D+00 -0.54833766D-02
 -0.19268858D-02  0.00000000D+00  0.00000000D+00  0.00000000D+00  0.00000000D+00
  0.00000000D+00  0.00000000D+00  0.23074612D-03  0.00000000D+00  0.10527770D-04
  0.00000000D+00  0.00000000D+00  0.10527770D-04  0.00000000D+00  0.00000000D+00
 -0.42111081D-04  0.00000000D+00  0.00000000D+00  0.00000000D+00  0.00000000D+00
  0.00000000D+00  0.00000000D+00  0.00000000D+00  0.00000000D+00  0.00000000D+00
  0.00000000D+00  0.00000000D+00  0.00000000D+00 -0.00000000D+00  0.00000000D+00
  0.00000000D+00  0.00000000D+00  0.00000000D+00 -0.81147542D+01 -0.10692673D+02
 -0.11833479D+02 -0.98606342D+01 -0.52878716D+01  0.00000000D+00  0.00000000D+00
  0.00000000D+00  0.00000000D+00  0.00000000D+00  0.00000000D+00  0.00000000D+00
  0.00000000D+00  0.00000000D+00  0.00000000D+00 -0.13631469D+01  0.00000000D+00
  0.00000000D+00 -0.63302141D-01  0.00000000D+00  0.00000000D+00  0.17405873D-02
  0.00000000D+00  0.00000000D+00 -0.15414065D-03  0.00000000D+00  0.00000000D+00
  0.00000000D+00  0.00000000D+00  0.00000000D+00  0.00000000D+00  0.00000000D+00
  0.00000000D+00  0.00000000D+00  0.00000000D+00 -0.54833766D-02 -0.19268858D-02
  0.00000000D+00  0.00000000D+00  0.00000000D+00  0.00000000D+00  0.00000000D+00
  0.00000000D+00  0.23074612D-03  0.00000000D+00 -0.10527770D-04  0.00000000D+00
  0.00000000D+00 -0.10527770D-04  0.00000000D+00  0.00000000D+00  0.42111081D-04
  0.00000000D+00  0.00000000D+00  0.00000000D+00
MO   10     MO 0.0        OCC NO =    2.0000000  ORB. ENERGY =   -8.083434
  0.00000000D+00  0.00000000D+00  0.00000000D+00  0.00000000D+00  0.00000000D+00
  0.00000000D+00  0.00000000D+00  0.00000000D+00  0.00000000D+00 -0.00000000D+00
  0.00000000D+00  0.00000000D+00  0.00000000D+00  0.00000000D+00  0.00000000D+00
  0.00000000D+00  0.00000000D+00  0.00000000D+00  0.00000000D+00  0.81147542D+01
  0.10692673D+02  0.11833479D+02  0.98606342D+01  0.52878716D+01  0.00000000D+00
  0.00000000D+00  0.00000000D+00  0.00000000D+00  0.00000000D+00  0.00000000D+00
  0.13631469D+01  0.00000000D+00  0.00000000D+00  0.63302141D-01  0.00000000D+00
  0.00000000D+00 -0.17405873D-02  0.00000000D+00  0.00000000D+00  0.15414065D-03
  0.00000000D+00  0.00000000D+00  0.00000000D+00  0.00000000D+00  0.00000000D+00
  0.00000000D+00  0.00000000D+00  0.00000000D+00  0.00000000D+00  0.00000000D+00
  0.00000000D+00 -0.54833766D-02 -0.19268858D-02  0.00000000D+00  0.00000000D+00
  0.00000000D+00  0.00000000D+00  0.00000000D+00  0.23074612D-03  0.00000000D+00
  0.10527770D-04  0.00000000D+00  0.00000000D+00  0.10527770D-04  0.00000000D+00
  0.00000000D+00 -0.42111081D-04  0.00000000D+00  0.00000000D+00  0.00000000D+00
  0.00000000D+00  0.00000000D+00  0.00000000D+00  0.00000000D+00  0.00000000D+00
  0.00000000D+00  0.00000000D+00  0.00000000D+00 -0.00000000D+00  0.00000000D+00
  0.00000000D+00  0.00000000D+00  0.00000000D+00  0.00000000D+00  0.00000000D+00
  0.00000000D+00  0.00000000D+00  0.00000000D+00 -0.81147542D+01 -0.10692673D+02
 -0.11833479D+02 -0.98606342D+01 -0.52878716D+01  0.00000000D+00  0.00000000D+00
  0.00000000D+00  0.00000000D+00  0.00000000D+00  0.00000000D+00 -0.13631469D+01
  0.00000000D+00  0.00000000D+00 -0.63302141D-01  0.00000000D+00  0.00000000D+00
  0.17405873D-02  0.00000000D+00  0.00000000D+00 -0.15414065D-03  0.00000000D+00
  0.00000000D+00  0.00000000D+00  0.00000000D+00  0.00000000D+00  0.00000000D+00
  0.00000000D+00  0.00000000D+00  0.00000000D+00  0.00000000D+00  0.00000000D+00
 -0.54833766D-02 -0.19268858D-02  0.00000000D+00  0.00000000D+00  0.00000000D+00
  0.00000000D+00  0.00000000D+00  0.23074612D-03  0.00000000D+00 -0.10527770D-04
  0.00000000D+00  0.00000000D+00 -0.10527770D-04  0.00000000D+00  0.00000000D+00
  0.42111081D-04  0.00000000D+00  0.00000000D+00
MO   11     MO 0.0        OCC NO =    2.0000000  ORB. ENERGY =   -1.217467
  0.92888969D-01  0.17308642D+00  0.29330549D+00  0.44586075D+00  0.56194113D+00
  0.49096800D+00  0.18636320D+00  0.15396653D+00  0.27365149D+00 -0.20411276D+00
 -0.44977120D+00 -0.13357184D+00  0.19757990D+00  0.57048529D-01  0.00000000D+00
  0.00000000D+00  0.00000000D+00  0.00000000D+00  0.00000000D+00  0.00000000D+00
  0.00000000D+00  0.00000000D+00  0.00000000D+00  0.00000000D+00  0.49160777D+00
  0.64778319D+00  0.71689544D+00  0.59737662D+00  0.32034966D+00  0.00000000D+00
  0.00000000D+00  0.89399590D-01  0.00000000D+00  0.00000000D+00 -0.44604628D-01
  0.00000000D+00  0.00000000D+00 -0.34645526D-01  0.00000000D+00  0.00000000D+00
 -0.11857741D-02 -0.36853414D-01 -0.12950473D-01 -0.36853414D-01 -0.12950473D-01
  0.73706828D-01  0.25900946D-01  0.00000000D+00  0.00000000D+00  0.00000000D+00
  0.00000000D+00  0.00000000D+00  0.00000000D+00 -0.26138876D-02 -0.26138876D-02
  0.52277751D-02  0.00000000D+00  0.00000000D+00  0.00000000D+00  0.00000000D+00
  0.00000000D+00 -0.67493607D-02  0.00000000D+00  0.00000000D+00  0.10124041D-01
  0.00000000D+00  0.00000000D+00  0.10124041D-01  0.00000000D+00  0.92888969D-01
  0.17308642D+00  0.29330549D+00  0.44586075D+00  0.56194113D+00  0.49096800D+00
  0.18636320D+00  0.15396653D+00  0.27365149D+00 -0.20411276D+00 -0.44977120D+00
 -0.13357184D+00  0.19757990D+00  0.57048529D-01  0.00000000D+00  0.00000000D+00
  0.00000000D+00  0.00000000D+00  0.00000000D+00  0.00000000D+00  0.00000000D+00
  0.00000000D+00  0.00000000D+00  0.00000000D+00 -0.49160777D+00 -0.64778319D+00
 -0.71689544D+00 -0.59737662D+00 -0.32034966D+00  0.00000000D+00  0.00000000D+00
 -0.89399590D-01  0.00000000D+00  0.00000000D+00  0.44604628D-01  0.00000000D+00
  0.00000000D+00  0.34645526D-01  0.00000000D+00  0.00000000D+00  0.11857741D-02
 -0.36853414D-01 -0.12950473D-01 -0.36853414D-01 -0.12950473D-01  0.73706828D-01
  0.25900946D-01  0.00000000D+00  0.00000000D+00  0.00000000D+00  0.00000000D+00
  0.00000000D+00  0.00000000D+00 -0.26138876D-02 -0.26138876D-02  0.52277751D-02
  0.00000000D+00  0.00000000D+00  0.00000000D+00  0.00000000D+00  0.00000000D+00
  0.67493607D-02  0.00000000D+00  0.00000000D+00 -0.10124041D-01  0.00000000D+00
  0.00000000D+00 -0.10124041D-01  0.00000000D+00
MO   12     MO 0.0        OCC NO =    2.0000000  ORB. ENERGY =   -1.014259
  0.99540008D-01  0.18547976D+00  0.31430675D+00  0.47778528D+00  0.60217726D+00
  0.52612230D+00  0.19970719D+00  0.16893341D+00  0.30025278D+00 -0.22395429D+00
 -0.48800729D+00 -0.14492709D+00  0.21891255D+00  0.72514297D-01  0.00000000D+00
  0.00000000D+00  0.00000000D+00  0.00000000D+00  0.00000000D+00  0.00000000D+00
  0.00000000D+00  0.00000000D+00  0.00000000D+00  0.00000000D+00 -0.41467025D+00
 -0.54640393D+00 -0.60469999D+00 -0.50388608D+00 -0.27021435D+00  0.00000000D+00
  0.00000000D+00 -0.73147014D-01  0.00000000D+00  0.00000000D+00  0.46980062D-01
  0.00000000D+00  0.00000000D+00  0.27593096D-01  0.00000000D+00  0.00000000D+00
  0.20704661D-02  0.20364814D-01  0.71562969D-02  0.20364814D-01  0.71562969D-02
 -0.40729627D-01 -0.14312594D-01  0.00000000D+00  0.00000000D+00  0.00000000D+00
  0.00000000D+00  0.00000000D+00  0.00000000D+00  0.15586049D-02  0.15586049D-02