 TITLE
GAUSSIAN             17 MOL ORBITALS    168 PRIMITIVES        2 NUCLEI
  Cl   1    (CENTRE  1)   0.00000000  0.00000000  1.88046647  CHARGE = 17.0
  Cl   2    (CENTRE  2)   0.00000000  0.00000000 -1.88046647  CHARGE = 17.0
CENTRE ASSIGNMENTS    1  1  1  1  1  1  1  1  1  1  1  1  1  1  1  1  1  1  1  1
CENTRE ASSIGNMENTS    1  1  1  1  1  1  1  1  1  1  1  1  1  1  1  1  1  1  1  1
CENTRE ASSIGNMENTS    1  1  1  1  1  1  1  1  1  1  1  1  1  1  1  1  1  1  1  1
CENTRE ASSIGNMENTS    1  1  1  1  1  1  1  1  1  1  1  1  1  1  1  1  1  1  1  1
CENTRE ASSIGNMENTS    1  1  1  1  2  2  2  2  2  2  2  2  2  2  2  2  2  2  2  2
CENTRE ASSIGNMENTS    2  2  2  2  2  2  2  2  2  2  2  2  2  2  2  2  2  2  2  2
CENTRE ASSIGNMENTS    2  2  2  2  2  2  2  2  2  2  2  2  2  2  2  2  2  2  2  2
CENTRE ASSIGNMENTS    2  2  2  2  2  2  2  2  2  2  2  2  2  2  2  2  2  2  2  2
CENTRE ASSIGNMENTS    2  2  2  2  2  2  2  2
TYPE ASSIGNMENTS      1  1  1  1  1  1  1  1  1  1  1  1  1  1  1  1  1  1  1  1
TYPE ASSIGNMENTS      1  1  1  1  1  1  1  2  3  4  2  3  4  2  3  4  2  3  4  2
TYPE ASSIGNMENTS      3  4  2  3  4  2  3  4  2  3  4  2  3  4  2  3  4  2  3  4
TYPE ASSIGNMENTS      2  3  4  2  3  4  2  3  4  2  3  4  2  3  4  2  3  4  2  3
TYPE ASSIGNMENTS      4  2  3  4  1  1  1  1  1  1  1  1  1  1  1  1  1  1  1  1
TYPE ASSIGNMENTS      1  1  1  1  1  1  1  1  1  1  1  2  3  4  2  3  4  2  3  4
TYPE ASSIGNMENTS      2  3  4  2  3  4  2  3  4  2  3  4  2  3  4  2  3  4  2  3
TYPE ASSIGNMENTS      4  2  3  4  2  3  4  2  3  4  2  3  4  2  3  4  2  3  4  2
TYPE ASSIGNMENTS      3  4  2  3  4  2  3  4
EXPONENTS  0.2969785D+07 0.1516628D+07 0.7745210D+06 0.3955372D+06 0.2019954D+06
EXPONENTS  0.1031562D+06 0.5268047D+05 0.2690319D+05 0.1373909D+05 0.7016361D+04
EXPONENTS  0.3583159D+04 0.1829870D+04 0.9344891D+03 0.4772307D+03 0.2437151D+03
EXPONENTS  0.1244619D+03 0.6356100D+02 0.3245972D+02 0.1657673D+02 0.8465508D+01
EXPONENTS  0.4323218D+01 0.2207808D+01 0.1127497D+01 0.5757971D+00 0.2940516D+00
EXPONENTS  0.1501681D+00 0.7668877D-01 0.1373909D+05 0.1373909D+05 0.1373909D+05
EXPONENTS  0.7016361D+04 0.7016361D+04 0.7016361D+04 0.3583159D+04 0.3583159D+04
EXPONENTS  0.3583159D+04 0.1829870D+04 0.1829870D+04 0.1829870D+04 0.9344891D+03
EXPONENTS  0.9344891D+03 0.9344891D+03 0.4772307D+03 0.4772307D+03 0.4772307D+03
EXPONENTS  0.2437151D+03 0.2437151D+03 0.2437151D+03 0.1244619D+03 0.1244619D+03
EXPONENTS  0.1244619D+03 0.6356100D+02 0.6356100D+02 0.6356100D+02 0.3245972D+02
EXPONENTS  0.3245972D+02 0.3245972D+02 0.1657673D+02 0.1657673D+02 0.1657673D+02
EXPONENTS  0.8465508D+01 0.8465508D+01 0.8465508D+01 0.4323218D+01 0.4323218D+01
EXPONENTS  0.4323218D+01 0.2207808D+01 0.2207808D+01 0.2207808D+01 0.1127497D+01
EXPONENTS  0.1127497D+01 0.1127497D+01 0.5757971D+00 0.5757971D+00 0.5757971D+00
EXPONENTS  0.2940516D+00 0.2940516D+00 0.2940516D+00 0.1501681D+00 0.1501681D+00
EXPONENTS  0.1501681D+00 0.7668877D-01 0.7668877D-01 0.7668877D-01 0.2969785D+07
EXPONENTS  0.1516628D+07 0.7745210D+06 0.3955372D+06 0.2019954D+06 0.1031562D+06
EXPONENTS  0.5268047D+05 0.2690319D+05 0.1373909D+05 0.7016361D+04 0.3583159D+04
EXPONENTS  0.1829870D+04 0.9344891D+03 0.4772307D+03 0.2437151D+03 0.1244619D+03
EXPONENTS  0.6356100D+02 0.3245972D+02 0.1657673D+02 0.8465508D+01 0.4323218D+01
EXPONENTS  0.2207808D+01 0.1127497D+01 0.5757971D+00 0.2940516D+00 0.1501681D+00
EXPONENTS  0.7668877D-01 0.1373909D+05 0.1373909D+05 0.1373909D+05 0.7016361D+04
EXPONENTS  0.7016361D+04 0.7016361D+04 0.3583159D+04 0.3583159D+04 0.3583159D+04
EXPONENTS  0.1829870D+04 0.1829870D+04 0.1829870D+04 0.9344891D+03 0.9344891D+03
EXPONENTS  0.9344891D+03 0.4772307D+03 0.4772307D+03 0.4772307D+03 0.2437151D+03
EXPONENTS  0.2437151D+03 0.2437151D+03 0.1244619D+03 0.1244619D+03 0.1244619D+03
EXPONENTS  0.6356100D+02 0.6356100D+02 0.6356100D+02 0.3245972D+02 0.3245972D+02
EXPONENTS  0.3245972D+02 0.1657673D+02 0.1657673D+02 0.1657673D+02 0.8465508D+01
EXPONENTS  0.8465508D+01 0.8465508D+01 0.4323218D+01 0.4323218D+01 0.4323218D+01
EXPONENTS  0.2207808D+01 0.2207808D+01 0.2207808D+01 0.1127497D+01 0.1127497D+01
EXPONENTS  0.1127497D+01 0.5757971D+00 0.5757971D+00 0.5757971D+00 0.2940516D+00
EXPONENTS  0.2940516D+00 0.2940516D+00 0.1501681D+00 0.1501681D+00 0.1501681D+00
EXPONENTS  0.7668877D-01 0.7668877D-01 0.7668877D-01
MO    1     MO 0.0        OCC NO =    2.0000000  ORB. ENERGY = -104.904792
  0.18595013D+00 -0.86503961D-01  0.22627893D+00  0.53606496D-01  0.24897483D+00
  0.24041549D+00  0.40114479D+00  0.52183500D+00  0.75148523D+00  0.10319178D+01
  0.14382540D+01  0.19660133D+01  0.26479153D+01  0.34208709D+01  0.41145830D+01
  0.43139925D+01  0.35128261D+01  0.17579948D+01  0.37852572D+00  0.21241224D-01
  0.20828497D-02 -0.10912816D-03  0.10327194D-03 -0.57488596D-04  0.15641663D-04
 -0.49258325D-05  0.54719483D-06  0.00000000D+00  0.00000000D+00 -0.79968985D-03
  0.00000000D+00  0.00000000D+00  0.40819760D-04  0.00000000D+00  0.00000000D+00
 -0.10470046D-02  0.00000000D+00  0.00000000D+00 -0.52015526D-03  0.00000000D+00
  0.00000000D+00 -0.15576965D-02  0.00000000D+00  0.00000000D+00 -0.14747097D-02
  0.00000000D+00  0.00000000D+00 -0.27661687D-02  0.00000000D+00  0.00000000D+00
 -0.36808233D-02  0.00000000D+00  0.00000000D+00 -0.57629455D-02  0.00000000D+00
  0.00000000D+00 -0.39558560D-02  0.00000000D+00  0.00000000D+00 -0.95744756D-03
  0.00000000D+00  0.00000000D+00  0.49172133D-04  0.00000000D+00  0.00000000D+00
 -0.52367230D-04  0.00000000D+00  0.00000000D+00  0.27447334D-04  0.00000000D+00
  0.00000000D+00 -0.25330374D-04  0.00000000D+00  0.00000000D+00  0.15834215D-04
  0.00000000D+00  0.00000000D+00 -0.63401974D-05  0.00000000D+00  0.00000000D+00
  0.16968703D-05  0.00000000D+00  0.00000000D+00 -0.22533949D-06  0.18595013D+00
 -0.86503961D-01  0.22627893D+00  0.53606496D-01  0.24897483D+00  0.24041549D+00
  0.40114479D+00  0.52183500D+00  0.75148523D+00  0.10319178D+01  0.14382540D+01
  0.19660133D+01  0.26479153D+01  0.34208709D+01  0.41145830D+01  0.43139925D+01
  0.35128261D+01  0.17579948D+01  0.37852572D+00  0.21241224D-01  0.20828497D-02
 -0.10912816D-03  0.10327194D-03 -0.57488596D-04  0.15641663D-04 -0.49258325D-05
  0.54719483D-06  0.00000000D+00  0.00000000D+00  0.79968985D-03  0.00000000D+00
  0.00000000D+00 -0.40819760D-04  0.00000000D+00  0.00000000D+00  0.10470046D-02
  0.00000000D+00  0.00000000D+00  0.52015526D-03  0.00000000D+00  0.00000000D+00
  0.15576965D-02  0.00000000D+00  0.00000000D+00  0.14747097D-02  0.00000000D+00
  0.00000000D+00  0.27661687D-02  0.00000000D+00  0.00000000D+00  0.36808233D-02
  0.00000000D+00  0.00000000D+00  0.57629455D-02  0.00000000D+00  0.00000000D+00
  0.39558560D-02  0.00000000D+00  0.00000000D+00  0.95744756D-03  0.00000000D+00
  0.00000000D+00 -0.49172133D-04  0.00000000D+00  0.00000000D+00  0.52367230D-04
  0.00000000D+00  0.00000000D+00 -0.27447334D-04  0.00000000D+00  0.00000000D+00
  0.25330374D-04  0.00000000D+00  0.00000000D+00 -0.15834215D-04  0.00000000D+00
  0.00000000D+00  0.63401974D-05  0.00000000D+00  0.00000000D+00 -0.16968703D-05
  0.00000000D+00  0.00000000D+00  0.22533949D-06
MO    2     MO 0.0        OCC NO =    2.0000000  ORB. ENERGY = -104.904790
  0.18594985D+00 -0.86503053D-01  0.22627727D+00  0.53608975D-01  0.24897152D+00
  0.24041976D+00  0.40113949D+00  0.52184164D+00  0.75147712D+00  0.10319279D+01
  0.14382418D+01  0.19660286D+01  0.26478969D+01  0.34208938D+01  0.41145561D+01
  0.43140251D+01  0.35127892D+01  0.17580368D+01  0.37848120D+00  0.21286534D-01
  0.20386012D-02 -0.68853014D-04  0.68433899D-04 -0.33547122D-04  0.58307316D-05
 -0.39497643D-05  0.94612559D-06  0.00000000D+00  0.00000000D+00 -0.65820262D-03
  0.00000000D+00  0.00000000D+00 -0.24063732D-03  0.00000000D+00  0.00000000D+00
 -0.69062743D-03  0.00000000D+00  0.00000000D+00 -0.88588148D-03  0.00000000D+00
  0.00000000D+00 -0.12000655D-02  0.00000000D+00  0.00000000D+00 -0.17952751D-02
  0.00000000D+00  0.00000000D+00 -0.24654191D-02  0.00000000D+00  0.00000000D+00
 -0.39301288D-02  0.00000000D+00  0.00000000D+00 -0.55302373D-02  0.00000000D+00
  0.00000000D+00 -0.41279862D-02  0.00000000D+00  0.00000000D+00 -0.80086776D-03
  0.00000000D+00  0.00000000D+00 -0.54971842D-04  0.00000000D+00  0.00000000D+00
  0.33124758D-04  0.00000000D+00  0.00000000D+00 -0.31055503D-04  0.00000000D+00
  0.00000000D+00  0.16318087D-04  0.00000000D+00  0.00000000D+00 -0.12799829D-04
  0.00000000D+00  0.00000000D+00  0.55830334D-05  0.00000000D+00  0.00000000D+00
 -0.70352237D-06  0.00000000D+00  0.00000000D+00 -0.38077876D-07 -0.18594985D+00
  0.86503053D-01 -0.22627727D+00 -0.53608975D-01 -0.24897152D+00 -0.24041976D+00
 -0.40113949D+00 -0.52184164D+00 -0.75147712D+00 -0.10319279D+01 -0.14382418D+01
 -0.19660286D+01 -0.26478969D+01 -0.34208938D+01 -0.41145561D+01 -0.43140251D+01
 -0.35127892D+01 -0.17580368D+01 -0.37848120D+00 -0.21286534D-01 -0.20386012D-02
  0.68853014D-04 -0.68433899D-04  0.33547122D-04 -0.58307316D-05  0.39497643D-05
 -0.94612559D-06  0.00000000D+00  0.00000000D+00 -0.65820262D-03  0.00000000D+00
  0.00000000D+00 -0.24063732D-03  0.00000000D+00  0.00000000D+00 -0.69062743D-03
  0.00000000D+00  0.00000000D+00 -0.88588148D-03  0.00000000D+00  0.00000000D+00
 -0.12000655D-02  0.00000000D+00  0.00000000D+00 -0.17952751D-02  0.00000000D+00
  0.00000000D+00 -0.24654191D-02  0.00000000D+00  0.00000000D+00 -0.39301288D-02
  0.00000000D+00  0.00000000D+00 -0.55302373D-02  0.00000000D+00  0.00000000D+00
 -0.41279862D-02  0.00000000D+00  0.00000000D+00 -0.80086776D-03  0.00000000D+00
  0.00000000D+00 -0.54971842D-04  0.00000000D+00  0.00000000D+00  0.33124758D-04
  0.00000000D+00  0.00000000D+00 -0.31055503D-04  0.00000000D+00  0.00000000D+00
  0.16318087D-04  0.00000000D+00  0.00000000D+00 -0.12799829D-04  0.00000000D+00
  0.00000000D+00  0.55830334D-05  0.00000000D+00  0.00000000D+00 -0.70352237D-06
  0.00000000D+00  0.00000000D+00 -0.38077876D-07
MO    3     MO 0.0        OCC NO =    2.0000000  ORB. ENERGY =  -10.630700
 -0.52106758D-01  0.24219945D-01 -0.63375022D-01 -0.15089642D-01 -0.69700606D-01
 -0.67509345D-01 -0.11234876D+00 -0.14658545D+00 -0.21085827D+00 -0.29071071D+00
 -0.40615681D+00 -0.56050011D+00 -0.76569772D+00 -0.10204638D+01 -0.12978083D+01
 -0.15187767D+01 -0.15222004D+01 -0.10714108D+01 -0.17298962D+00  0.61261370D+00
  0.77234693D+00  0.31472195D+00  0.30006779D-01  0.14357770D-02  0.85914524D-04
  0.37546780D-04 -0.80999956D-06  0.00000000D+00  0.00000000D+00 -0.16373979D-01
  0.00000000D+00  0.00000000D+00 -0.16573385D-02  0.00000000D+00  0.00000000D+00
 -0.19678799D-01  0.00000000D+00  0.00000000D+00 -0.14402826D-01  0.00000000D+00
  0.00000000D+00 -0.29904190D-01  0.00000000D+00  0.00000000D+00 -0.32442116D-01
  0.00000000D+00  0.00000000D+00 -0.49793549D-01  0.00000000D+00  0.00000000D+00
 -0.56306817D-01  0.00000000D+00  0.00000000D+00 -0.70045951D-01  0.00000000D+00
  0.00000000D+00 -0.68200489D-01  0.00000000D+00  0.00000000D+00 -0.64139674D-01
  0.00000000D+00  0.00000000D+00 -0.41283360D-01  0.00000000D+00  0.00000000D+00
 -0.24879190D-01  0.00000000D+00  0.00000000D+00 -0.75584835D-02  0.00000000D+00
  0.00000000D+00 -0.11684436D-02  0.00000000D+00  0.00000000D+00  0.22333916D-03
  0.00000000D+00  0.00000000D+00 -0.16056725D-03  0.00000000D+00  0.00000000D+00
  0.46903286D-04  0.00000000D+00  0.00000000D+00 -0.83728107D-05 -0.52106758D-01
  0.24219945D-01 -0.63375022D-01 -0.15089642D-01 -0.69700606D-01 -0.67509345D-01
 -0.11234876D+00 -0.14658545D+00 -0.21085827D+00 -0.29071071D+00 -0.40615681D+00
 -0.56050011D+00 -0.76569772D+00 -0.10204638D+01 -0.12978083D+01 -0.15187767D+01
 -0.15222004D+01 -0.10714108D+01 -0.17298962D+00  0.61261370D+00  0.77234693D+00
  0.31472195D+00  0.30006779D-01  0.14357770D-02  0.85914524D-04  0.37546780D-04
 -0.80999956D-06  0.00000000D+00  0.00000000D+00  0.16373979D-01  0.00000000D+00
  0.00000000D+00  0.16573385D-02  0.00000000D+00  0.00000000D+00  0.19678799D-01
  0.00000000D+00  0.00000000D+00  0.14402826D-01  0.00000000D+00  0.00000000D+00
  0.29904190D-01  0.00000000D+00  0.00000000D+00  0.32442116D-01  0.00000000D+00
  0.00000000D+00  0.49793549D-01  0.00000000D+00  0.00000000D+00  0.56306817D-01
  0.00000000D+00  0.00000000D+00  0.70045951D-01  0.00000000D+00  0.00000000D+00
  0.68200489D-01  0.00000000D+00  0.00000000D+00  0.64139674D-01  0.00000000D+00
  0.00000000D+00  0.41283360D-01  0.00000000D+00  0.00000000D+00  0.24879190D-01
  0.00000000D+00  0.00000000D+00  0.75584835D-02  0.00000000D+00  0.00000000D+00
  0.11684436D-02  0.00000000D+00  0.00000000D+00 -0.22333916D-03  0.00000000D+00
  0.00000000D+00  0.16056725D-03  0.00000000D+00  0.00000000D+00 -0.46903286D-04
  0.00000000D+00  0.00000000D+00  0.83728107D-05
MO    4     MO 0.0        OCC NO =    2.0000000  ORB. ENERGY =  -10.630561
 -0.52113590D-01  0.24233538D-01 -0.63400976D-01 -0.15057263D-01 -0.69748959D-01
 -0.67456049D-01 -0.11242641D+00 -0.14650483D+00 -0.21097944D+00 -0.29059162D+00
 -0.40634563D+00 -0.56032591D+00 -0.76599254D+00 -0.10202091D+01 -0.12982628D+01
 -0.15183919D+01 -0.15228589D+01 -0.10707809D+01 -0.17381999D+00  0.61359255D+00
  0.77137857D+00  0.31577403D+00  0.29150718D-01  0.20757600D-02 -0.38326230D-03
  0.29180367D-03 -0.71299442D-04  0.00000000D+00  0.00000000D+00 -0.14216450D-01
  0.00000000D+00  0.00000000D+00 -0.63296660D-02  0.00000000D+00  0.00000000D+00
 -0.13991558D-01  0.00000000D+00  0.00000000D+00 -0.20640157D-01  0.00000000D+00
  0.00000000D+00 -0.24254327D-01  0.00000000D+00  0.00000000D+00 -0.38221206D-01
  0.00000000D+00  0.00000000D+00 -0.45172111D-01  0.00000000D+00  0.00000000D+00
 -0.61386079D-01  0.00000000D+00  0.00000000D+00 -0.66531271D-01  0.00000000D+00
  0.00000000D+00 -0.72549020D-01  0.00000000D+00  0.00000000D+00 -0.61476146D-01
  0.00000000D+00  0.00000000D+00 -0.44496457D-01  0.00000000D+00  0.00000000D+00
 -0.22763527D-01  0.00000000D+00  0.00000000D+00 -0.93840239D-02  0.00000000D+00
  0.00000000D+00  0.10004779D-03  0.00000000D+00  0.00000000D+00 -0.35615347D-03
  0.00000000D+00  0.00000000D+00  0.17949750D-03  0.00000000D+00  0.00000000D+00
 -0.88823702D-04  0.00000000D+00  0.00000000D+00  0.18947131D-04  0.52113590D-01
 -0.24233538D-01  0.63400976D-01  0.15057263D-01  0.69748959D-01  0.67456049D-01
  0.11242641D+00  0.14650483D+00  0.21097944D+00  0.29059162D+00  0.40634563D+00
  0.56032591D+00  0.76599254D+00  0.10202091D+01  0.12982628D+01  0.15183919D+01
  0.15228589D+01  0.10707809D+01  0.17381999D+00 -0.61359255D+00 -0.77137857D+00
 -0.31577403D+00 -0.29150718D-01 -0.20757600D-02  0.38326230D-03 -0.29180367D-03
  0.71299442D-04  0.00000000D+00  0.00000000D+00 -0.14216450D-01  0.00000000D+00
  0.00000000D+00 -0.63296660D-02  0.00000000D+00  0.00000000D+00 -0.13991558D-01
  0.00000000D+00  0.00000000D+00 -0.20640157D-01  0.00000000D+00  0.00000000D+00
 -0.24254327D-01  0.00000000D+00  0.00000000D+00 -0.38221206D-01  0.00000000D+00
  0.00000000D+00 -0.45172111D-01  0.00000000D+00  0.00000000D+00 -0.61386079D-01
  0.00000000D+00  0.00000000D+00 -0.66531271D-01  0.00000000D+00  0.00000000D+00
 -0.72549020D-01  0.00000000D+00  0.00000000D+00 -0.61476146D-01  0.00000000D+00
  0.00000000D+00 -0.44496457D-01  0.00000000D+00  0.00000000D+00 -0.22763527D-01
  0.00000000D+00  0.00000000D+00 -0.93840239D-02  0.00000000D+00  0.00000000D+00
  0.10004779D-03  0.00000000D+00  0.00000000D+00 -0.35615347D-03  0.00000000D+00
  0.00000000D+00  0.17949750D-03  0.00000000D+00  0.00000000D+00 -0.88823702D-04
  0.00000000D+00  0.00000000D+00  0.18947131D-04
MO    5     MO 0.0        OCC NO =    2.0000000  ORB. ENERGY =   -8.098295
 -0.64200850D-03  0.31147936D-03 -0.80297463D-03 -0.14283158D-03 -0.90796763D-03
 -0.75385567D-03 -0.14631858D-02 -0.16809563D-02 -0.27155121D-02 -0.33853206D-02
 -0.51759986D-02 -0.65999164D-02 -0.96903971D-02 -0.12117656D-01 -0.16427015D-01
 -0.18158371D-01 -0.19663469D-01 -0.12514733D-01 -0.30902005D-02  0.97328043D-02
  0.96091514D-02  0.43514979D-02 -0.17157381D-02  0.10763039D-02 -0.64740416D-03
  0.20553470D-03 -0.24582309D-04  0.00000000D+00  0.00000000D+00  0.15746910D+01
  0.00000000D+00  0.00000000D+00  0.43233377D+00  0.00000000D+00  0.00000000D+00
  0.17203892D+01  0.00000000D+00  0.00000000D+00  0.18402735D+01  0.00000000D+00
  0.00000000D+00  0.27842773D+01  0.00000000D+00  0.00000000D+00  0.36904288D+01
  0.00000000D+00  0.00000000D+00  0.49226458D+01  0.00000000D+00  0.00000000D+00
  0.61901174D+01  0.00000000D+00  0.00000000D+00  0.72786174D+01  0.00000000D+00
  0.00000000D+00  0.76643233D+01  0.00000000D+00  0.00000000D+00  0.66448368D+01
  0.00000000D+00  0.00000000D+00  0.44060506D+01  0.00000000D+00  0.00000000D+00
  0.20449717D+01  0.00000000D+00  0.00000000D+00  0.49461664D+00  0.00000000D+00
  0.00000000D+00  0.44451260D-01  0.00000000D+00  0.00000000D+00  0.43755283D-03
  0.00000000D+00  0.00000000D+00  0.58692503D-03  0.00000000D+00  0.00000000D+00
 -0.15534304D-03  0.00000000D+00  0.00000000D+00  0.24230851D-04 -0.64200850D-03
  0.31147936D-03 -0.80297463D-03 -0.14283158D-03 -0.90796763D-03 -0.75385567D-03
 -0.14631858D-02 -0.16809563D-02 -0.27155121D-02 -0.33853206D-02 -0.51759986D-02
 -0.65999164D-02 -0.96903971D-02 -0.12117656D-01 -0.16427015D-01 -0.18158371D-01
 -0.19663469D-01 -0.12514733D-01 -0.30902005D-02  0.97328043D-02  0.96091514D-02
  0.43514979D-02 -0.17157381D-02  0.10763039D-02 -0.64740416D-03  0.20553470D-03
 -0.24582309D-04  0.00000000D+00  0.00000000D+00 -0.15746910D+01  0.00000000D+00
  0.00000000D+00 -0.43233377D+00  0.00000000D+00  0.00000000D+00 -0.17203892D+01
  0.00000000D+00  0.00000000D+00 -0.18402735D+01  0.00000000D+00  0.00000000D+00
 -0.27842773D+01  0.00000000D+00  0.00000000D+00 -0.36904288D+01  0.00000000D+00
  0.00000000D+00 -0.49226458D+01  0.00000000D+00  0.00000000D+00 -0.61901174D+01
  0.00000000D+00  0.00000000D+00 -0.72786174D+01  0.00000000D+00  0.00000000D+00
 -0.76643233D+01  0.00000000D+00  0.00000000D+00 -0.66448368D+01  0.00000000D+00
  0.00000000D+00 -0.44060506D+01  0.00000000D+00  0.00000000D+00 -0.20449717D+01
  0.00000000D+00  0.00000000D+00 -0.49461664D+00  0.00000000D+00  0.00000000D+00
 -0.44451260D-01  0.00000000D+00  0.00000000D+00 -0.43755283D-03  0.00000000D+00
  0.00000000D+00 -0.58692503D-03  0.00000000D+00  0.00000000D+00  0.15534304D-03
  0.00000000D+00  0.00000000D+00 -0.24230851D-04
MO    6     MO 0.0        OCC NO =    2.0000000  ORB. ENERGY =   -8.098112
 -0.62520324D-03  0.27674729D-03 -0.73693763D-03 -0.22675204D-03 -0.78414903D-03
 -0.89268015D-03 -0.12643651D-02 -0.18916862D-02 -0.24058058D-02 -0.36978545D-02
 -0.46946075D-02 -0.70593980D-02 -0.89407032D-02 -0.12793712D-01 -0.15272122D-01
 -0.19183712D-01 -0.17978392D-01 -0.14188001D-01 -0.89489450D-03  0.71033004D-02
  0.12372094D-01  0.12498497D-02  0.11468632D-02 -0.11782250D-02  0.67909699D-03
 -0.27788527D-03  0.90339843D-04  0.00000000D+00  0.00000000D+00  0.15702192D+01
  0.00000000D+00  0.00000000D+00  0.44189054D+00  0.00000000D+00  0.00000000D+00
  0.17086810D+01  0.00000000D+00  0.00000000D+00  0.18529914D+01  0.00000000D+00
  0.00000000D+00  0.27726056D+01  0.00000000D+00  0.00000000D+00  0.37021526D+01
  0.00000000D+00  0.00000000D+00  0.49129935D+01  0.00000000D+00  0.00000000D+00
  0.62003383D+01  0.00000000D+00  0.00000000D+00  0.72710970D+01  0.00000000D+00
  0.00000000D+00  0.76730260D+01  0.00000000D+00  0.00000000D+00  0.66389311D+01
  0.00000000D+00  0.00000000D+00  0.44126920D+01  0.00000000D+00  0.00000000D+00
  0.20400749D+01  0.00000000D+00  0.00000000D+00  0.49902529D+00  0.00000000D+00
  0.00000000D+00  0.41027117D-01  0.00000000D+00  0.00000000D+00  0.26635065D-02
  0.00000000D+00  0.00000000D+00 -0.58623977D-03  0.00000000D+00  0.00000000D+00
  0.19579462D-03  0.00000000D+00  0.00000000D+00 -0.34638405D-04  0.62520324D-03
 -0.27674729D-03  0.73693763D-03  0.22675204D-03  0.78414903D-03  0.89268015D-03
  0.12643651D-02  0.18916862D-02  0.24058058D-02  0.36978545D-02  0.46946075D-02
  0.70593980D-02  0.89407032D-02  0.12793712D-01  0.15272122D-01  0.19183712D-01
  0.17978392D-01  0.14188001D-01  0.89489450D-03 -0.71033004D-02 -0.12372094D-01
 -0.12498497D-02 -0.11468632D-02  0.11782250D-02 -0.67909699D-03  0.27788527D-03
 -0.90339843D-04  0.00000000D+00  0.00000000D+00  0.15702192D+01  0.00000000D+00
  0.00000000D+00  0.44189054D+00  0.00000000D+00  0.00000000D+00  0.17086810D+01
  0.00000000D+00  0.00000000D+00  0.18529914D+01  0.00000000D+00  0.00000000D+00
  0.27726056D+01  0.00000000D+00  0.00000000D+00  0.37021526D+01  0.00000000D+00
  0.00000000D+00  0.49129935D+01  0.00000000D+00  0.00000000D+00  0.62003383D+01
  0.00000000D+00  0.00000000D+00  0.72710970D+01  0.00000000D+00  0.00000000D+00
  0.76730260D+01  0.00000000D+00  0.00000000D+00  0.66389311D+01  0.00000000D+00
  0.00000000D+00  0.44126920D+01  0.00000000D+00  0.00000000D+00  0.20400749D+01
  0.00000000D+00  0.00000000D+00  0.49902529D+00  0.00000000D+00  0.00000000D+00
  0.41027117D-01  0.00000000D+00  0.00000000D+00  0.26635065D-02  0.00000000D+00
  0.00000000D+00 -0.58623977D-03  0.00000000D+00  0.00000000D+00  0.19579462D-03
  0.00000000D+00  0.00000000D+00 -0.34638405D-04
MO    7     MO 0.0        OCC NO =    2.0000000  ORB. ENERGY =   -8.093511
  0.00000000D+00  0.00000000D+00  0.00000000D+00  0.00000000D+00  0.00000000D+00
  0.00000000D+00  0.00000000D+00  0.00000000D+00  0.00000000D+00  0.00000000D+00
  0.00000000D+00  0.00000000D+00  0.00000000D+00  0.00000000D+00  0.00000000D+00
  0.00000000D+00  0.00000000D+00  0.00000000D+00  0.00000000D+00  0.00000000D+00
  0.00000000D+00  0.00000000D+00  0.00000000D+00  0.00000000D+00  0.00000000D+00
  0.00000000D+00  0.00000000D+00  0.15780376D+01  0.00000000D+00  0.00000000D+00
  0.43766959D+00  0.00000000D+00  0.00000000D+00  0.17212574D+01  0.00000000D+00
  0.00000000D+00  0.18515476D+01  0.00000000D+00  0.00000000D+00  0.27886999D+01
  0.00000000D+00  0.00000000D+00  0.37074956D+01  0.00000000D+00  0.00000000D+00
  0.49352383D+01  0.00000000D+00  0.00000000D+00  0.62156430D+01  0.00000000D+00
  0.00000000D+00  0.73018629D+01  0.00000000D+00  0.00000000D+00  0.76972453D+01
  0.00000000D+00  0.00000000D+00  0.66676646D+01  0.00000000D+00  0.00000000D+00
  0.44249860D+01  0.00000000D+00  0.00000000D+00  0.20454506D+01  0.00000000D+00
  0.00000000D+00  0.49058315D+00  0.00000000D+00  0.00000000D+00  0.41660832D-01
  0.00000000D+00  0.00000000D+00  0.13539027D-02  0.00000000D+00  0.00000000D+00
  0.51375100D-04  0.00000000D+00  0.00000000D+00  0.10654858D-04  0.00000000D+00
  0.00000000D+00 -0.15380062D-05  0.00000000D+00  0.00000000D+00  0.00000000D+00
  0.00000000D+00  0.00000000D+00  0.00000000D+00  0.00000000D+00  0.00000000D+00
  0.00000000D+00  0.00000000D+00  0.00000000D+00  0.00000000D+00  0.00000000D+00
  0.00000000D+00  0.00000000D+00  0.00000000D+00  0.00000000D+00  0.00000000D+00
  0.00000000D+00  0.00000000D+00  0.00000000D+00  0.00000000D+00  0.00000000D+00
  0.00000000D+00  0.00000000D+00  0.00000000D+00  0.00000000D+00  0.00000000D+00
  0.00000000D+00  0.15780376D+01  0.00000000D+00  0.00000000D+00  0.43766959D+00
  0.00000000D+00  0.00000000D+00  0.17212574D+01  0.00000000D+00  0.00000000D+00
  0.18515476D+01  0.00000000D+00  0.00000000D+00  0.27886999D+01  0.00000000D+00
  0.00000000D+00  0.37074956D+01  0.00000000D+00  0.00000000D+00  0.49352383D+01
  0.00000000D+00  0.00000000D+00  0.62156430D+01  0.00000000D+00  0.00000000D+00
  0.73018629D+01  0.00000000D+00  0.00000000D+00  0.76972453D+01  0.00000000D+00
  0.00000000D+00  0.66676646D+01  0.00000000D+00  0.00000000D+00  0.44249860D+01
  0.00000000D+00  0.00000000D+00  0.20454506D+01  0.00000000D+00  0.00000000D+00
  0.49058315D+00  0.00000000D+00  0.00000000D+00  0.41660832D-01  0.00000000D+00
  0.00000000D+00  0.13539027D-02  0.00000000D+00  0.00000000D+00  0.51375100D-04
  0.00000000D+00  0.00000000D+00  0.10654858D-04  0.00000000D+00  0.00000000D+00
 -0.15380062D-05  0.00000000D+00  0.00000000D+00
MO    8     MO 0.0        OCC NO =    2.0000000  ORB. ENERGY =   -8.093511
  0.00000000D+00  0.00000000D+00  0.00000000D+00  0.00000000D+00  0.00000000D+00
  0.00000000D+00  0.00000000D+00  0.00000000D+00  0.00000000D+00  0.00000000D+00
  0.00000000D+00  0.00000000D+00  0.00000000D+00  0.00000000D+00  0.00000000D+00
  0.00000000D+00  0.00000000D+00  0.00000000D+00  0.00000000D+00  0.00000000D+00
  0.00000000D+00  0.00000000D+00  0.00000000D+00  0.00000000D+00  0.00000000D+00
  0.00000000D+00  0.00000000D+00  0.00000000D+00  0.15780376D+01  0.00000000D+00
  0.00000000D+00  0.43766959D+00  0.00000000D+00  0.00000000D+00  0.17212574D+01
  0.00000000D+00  0.00000000D+00  0.18515476D+01  0.00000000D+00  0.00000000D+00
  0.27886999D+01  0.00000000D+00  0.00000000D+00  0.37074956D+01  0.00000000D+00
  0.00000000D+00  0.49352383D+01  0.00000000D+00  0.00000000D+00  0.62156430D+01
  0.00000000D+00  0.00000000D+00  0.73018629D+01  0.00000000D+00  0.00000000D+00
  0.76972453D+01  0.00000000D+00  0.00000000D+00  0.66676646D+01  0.00000000D+00
  0.00000000D+00  0.44249860D+01  0.00000000D+00  0.00000000D+00  0.20454506D+01
  0.00000000D+00  0.00000000D+00  0.49058315D+00  0.00000000D+00  0.00000000D+00
  0.41660832D-01  0.00000000D+00  0.00000000D+00  0.13539027D-02  0.00000000D+00
  0.00000000D+00  0.51375100D-04  0.00000000D+00  0.00000000D+00  0.10654858D-04
  0.00000000D+00  0.00000000D+00 -0.15380062D-05  0.00000000D+00  0.00000000D+00
  0.00000000D+00  0.00000000D+00  0.00000000D+00  0.00000000D+00  0.00000000D+00
  0.00000000D+00  0.00000000D+00  0.00000000D+00  0.00000000D+00  0.00000000D+00
  0.00000000D+00  0.00000000D+00  0.00000000D+00  0.00000000D+00  0.00000000D+00
  0.00000000D+00  0.00000000D+00  0.00000000D+00  0.00000000D+00  0.00000000D+00
  0.00000000D+00  0.00000000D+00  0.00000000D+00  0.00000000D+00  0.00000000D+00
  0.00000000D+00  0.00000000D+00  0.15780376D+01  0.00000000D+00  0.00000000D+00
  0.43766959D+00  0.00000000D+00  0.00000000D+00  0.17212574D+01  0.00000000D+00
  0.00000000D+00  0.18515476D+01  0.00000000D+00  0.00000000D+00  0.27886999D+01
  0.00000000D+00  0.00000000D+00  0.37074956D+01  0.00000000D+00  0.00000000D+00
  0.49352383D+01  0.00000000D+00  0.00000000D+00  0.62156430D+01  0.00000000D+00
  0.00000000D+00  0.73018629D+01  0.00000000D+00  0.00000000D+00  0.76972453D+01
  0.00000000D+00  0.00000000D+00  0.66676646D+01  0.00000000D+00  0.00000000D+00
  0.44249860D+01  0.00000000D+00  0.00000000D+00  0.20454506D+01  0.00000000D+00
  0.00000000D+00  0.49058315D+00  0.00000000D+00  0.00000000D+00  0.41660832D-01
  0.00000000D+00  0.00000000D+00  0.13539027D-02  0.00000000D+00  0.00000000D+00
  0.51375100D-04  0.00000000D+00  0.00000000D+00  0.10654858D-04  0.00000000D+00
  0.00000000D+00 -0.15380062D-05  0.00000000D+00
MO    9     MO 0.0        OCC NO =    2.0000000  ORB. ENERGY =   -8.093496
  0.00000000D+00  0.00000000D+00  0.00000000D+00  0.00000000D+00  0.00000000D+00
  0.00000000D+00  0.00000000D+00  0.00000000D+00  0.00000000D+00  0.00000000D+00
  0.00000000D+00  0.00000000D+00  0.00000000D+00  0.00000000D+00  0.00000000D+00
  0.00000000D+00  0.00000000D+00  0.00000000D+00  0.00000000D+00  0.00000000D+00
  0.00000000D+00  0.00000000D+00  0.00000000D+00  0.00000000D+00  0.00000000D+00
  0.00000000D+00  0.00000000D+00  0.00000000D+00  0.15770895D+01  0.00000000D+00
  0.00000000D+00  0.43965424D+00  0.00000000D+00  0.00000000D+00  0.17188014D+01
  0.00000000D+00  0.00000000D+00  0.18541747D+01  0.00000000D+00  0.00000000D+00
  0.27862402D+01  0.00000000D+00  0.00000000D+00  0.37098948D+01  0.00000000D+00
  0.00000000D+00  0.49331768D+01  0.00000000D+00  0.00000000D+00  0.62176991D+01
  0.00000000D+00  0.00000000D+00  0.73002243D+01  0.00000000D+00  0.00000000D+00
  0.76989577D+01  0.00000000D+00  0.00000000D+00  0.66663882D+01  0.00000000D+00
  0.00000000D+00  0.44262660D+01  0.00000000D+00  0.00000000D+00  0.20444998D+01
  0.00000000D+00  0.00000000D+00  0.49134247D+00  0.00000000D+00  0.00000000D+00
  0.41156576D-01  0.00000000D+00  0.00000000D+00  0.16004799D-02  0.00000000D+00
  0.00000000D+00 -0.34725260D-04  0.00000000D+00  0.00000000D+00  0.22988702D-04
  0.00000000D+00  0.00000000D+00 -0.20830130D-05  0.00000000D+00  0.00000000D+00
  0.00000000D+00  0.00000000D+00  0.00000000D+00  0.00000000D+00  0.00000000D+00
  0.00000000D+00  0.00000000D+00  0.00000000D+00  0.00000000D+00  0.00000000D+00
  0.00000000D+00  0.00000000D+00  0.00000000D+00  0.00000000D+00  0.00000000D+00
  0.00000000D+00  0.00000000D+00  0.00000000D+00  0.00000000D+00  0.00000000D+00
  0.00000000D+00  0.00000000D+00  0.00000000D+00  0.00000000D+00  0.00000000D+00
  0.00000000D+00  0.00000000D+00 -0.15770895D+01  0.00000000D+00  0.00000000D+00
 -0.43965424D+00  0.00000000D+00  0.00000000D+00 -0.17188014D+01  0.00000000D+00
  0.00000000D+00 -0.18541747D+01  0.00000000D+00  0.00000000D+00 -0.27862402D+01
  0.00000000D+00  0.00000000D+00 -0.37098948D+01  0.00000000D+00  0.00000000D+00
 -0.49331768D+01  0.00000000D+00  0.00000000D+00 -0.62176991D+01  0.00000000D+00
  0.00000000D+00 -0.73002243D+01  0.00000000D+00  0.00000000D+00 -0.76989577D+01
  0.00000000D+00  0.00000000D+00 -0.66663882D+01  0.00000000D+00  0.00000000D+00
 -0.44262660D+01  0.00000000D+00  0.00000000D+00 -0.20444998D+01  0.00000000D+00
  0.00000000D+00 -0.49134247D+00  0.00000000D+00  0.00000000D+00 -0.41156576D-01
  0.00000000D+00  0.00000000D+00 -0.16004799D-02  0.00000000D+00  0.00000000D+00
  0.34725260D-04  0.00000000D+00  0.00000000D+00 -0.22988702D-04  0.00000000D+00
  0.00000000D+00  0.20830130D-05  0.00000000D+00
MO   10     MO 0.0        OCC NO =    2.0000000  ORB. ENERGY =   -8.093496
  0.00000000D+00  0.00000000D+00  0.00000000D+00  0.00000000D+00  0.00000000D+00
  0.00000000D+00  0.00000000D+00  0.00000000D+00  0.00000000D+00  0.00000000D+00
  0.00000000D+00  0.00000000D+00  0.00000000D+00  0.00000000D+00  0.00000000D+00
  0.00000000D+00  0.00000000D+00  0.00000000D+00  0.00000000D+00  0.00000000D+00
  0.00000000D+00  0.00000000D+00  0.00000000D+00  0.00000000D+00  0.00000000D+00