 TITLE
GAUSSIAN             17 MOL ORBITALS     92 PRIMITIVES        2 NUCLEI
  Cl   1    (CENTRE  1)   0.00000000  0.00000000  1.88046647  CHARGE = 17.0
  Cl   2    (CENTRE  2)   0.00000000  0.00000000 -1.88046647  CHARGE = 17.0
CENTRE ASSIGNMENTS    1  1  1  1  1  1  1  1  1  1  1  1  1  1  1  1  1  1  1  1
CENTRE ASSIGNMENTS    1  1  1  1  1  1  1  1  1  1  1  1  1  1  1  1  1  1  1  1
CENTRE ASSIGNMENTS    1  1  1  1  1  1  2  2  2  2  2  2  2  2  2  2  2  2  2  2
CENTRE ASSIGNMENTS    2  2  2  2  2  2  2  2  2  2  2  2  2  2  2  2  2  2  2  2
CENTRE ASSIGNMENTS    2  2  2  2  2  2  2  2  2  2  2  2
TYPE ASSIGNMENTS      1  1  1  1  1  1  1  1  1  1  1  1  2  2  2  2  2  2  3  3
TYPE ASSIGNMENTS      3  3  3  3  4  4  4  4  4  4  1  1  1  2  2  2  3  3  3  4
TYPE ASSIGNMENTS      4  4  1  2  3  4  1  1  1  1  1  1  1  1  1  1  1  1  2  2
TYPE ASSIGNMENTS      2  2  2  2  3  3  3  3  3  3  4  4  4  4  4  4  1  1  1  2
TYPE ASSIGNMENTS      2  2  3  3  3  4  4  4  1  2  3  4
EXPONENTS  0.2518010D+05 0.3780350D+04 0.8604740D+03 0.2421450D+03 0.7733490D+02
EXPONENTS  0.2624700D+02 0.4917650D+03 0.1169840D+03 0.3741530D+02 0.1378340D+02
EXPONENTS  0.5452150D+01 0.2225880D+01 0.4917650D+03 0.1169840D+03 0.3741530D+02
EXPONENTS  0.1378340D+02 0.5452150D+01 0.2225880D+01 0.4917650D+03 0.1169840D+03
EXPONENTS  0.3741530D+02 0.1378340D+02 0.5452150D+01 0.2225880D+01 0.4917650D+03
EXPONENTS  0.1169840D+03 0.3741530D+02 0.1378340D+02 0.5452150D+01 0.2225880D+01
EXPONENTS  0.3186490D+01 0.1144270D+01 0.4203770D+00 0.3186490D+01 0.1144270D+01
EXPONENTS  0.4203770D+00 0.3186490D+01 0.1144270D+01 0.4203770D+00 0.3186490D+01
EXPONENTS  0.1144270D+01 0.4203770D+00 0.1426570D+00 0.1426570D+00 0.1426570D+00
EXPONENTS  0.1426570D+00 0.2518010D+05 0.3780350D+04 0.8604740D+03 0.2421450D+03
EXPONENTS  0.7733490D+02 0.2624700D+02 0.4917650D+03 0.1169840D+03 0.3741530D+02
EXPONENTS  0.1378340D+02 0.5452150D+01 0.2225880D+01 0.4917650D+03 0.1169840D+03
EXPONENTS  0.3741530D+02 0.1378340D+02 0.5452150D+01 0.2225880D+01 0.4917650D+03
EXPONENTS  0.1169840D+03 0.3741530D+02 0.1378340D+02 0.5452150D+01 0.2225880D+01
EXPONENTS  0.4917650D+03 0.1169840D+03 0.3741530D+02 0.1378340D+02 0.5452150D+01
EXPONENTS  0.2225880D+01 0.3186490D+01 0.1144270D+01 0.4203770D+00 0.3186490D+01
EXPONENTS  0.1144270D+01 0.4203770D+00 0.3186490D+01 0.1144270D+01 0.4203770D+00
EXPONENTS  0.3186490D+01 0.1144270D+01 0.4203770D+00 0.1426570D+00 0.1426570D+00
EXPONENTS  0.1426570D+00 0.1426570D+00
MO    1     MO 0.0        OCC NO =    2.0000000  ORB. ENERGY = -104.883136
  0.18400580D+01  0.33979900D+01  0.55131582D+01  0.73201148D+01  0.63262271D+01
  0.19792020D+01 -0.15212224D-02 -0.69273440D-02 -0.10794121D-01  0.20418641D-02
  0.13333406D-01  0.53754074D-02  0.00000000D+00  0.00000000D+00  0.00000000D+00
  0.00000000D+00  0.00000000D+00  0.00000000D+00  0.00000000D+00  0.00000000D+00
  0.00000000D+00  0.00000000D+00  0.00000000D+00  0.00000000D+00 -0.11160567D-02
 -0.14090811D-02 -0.14518959D-02 -0.10521704D-02 -0.45645140D-03 -0.82817993D-04
  0.12638302D-02 -0.14338429D-03 -0.11646913D-02 -0.00000000D+00  0.00000000D+00
  0.00000000D+00 -0.00000000D+00  0.00000000D+00  0.00000000D+00 -0.11906842D-04
  0.74898426D-04  0.49223769D-04  0.40371676D-03  0.00000000D+00  0.00000000D+00
 -0.10220373D-03 -0.18400580D+01 -0.33979900D+01 -0.55131582D+01 -0.73201148D+01
 -0.63262271D+01 -0.19792020D+01  0.15212224D-02  0.69273440D-02  0.10794121D-01
 -0.20418641D-02 -0.13333406D-01 -0.53754074D-02  0.00000000D+00  0.00000000D+00
  0.00000000D+00  0.00000000D+00  0.00000000D+00  0.00000000D+00  0.00000000D+00
  0.00000000D+00  0.00000000D+00  0.00000000D+00  0.00000000D+00  0.00000000D+00
 -0.11160567D-02 -0.14090811D-02 -0.14518959D-02 -0.10521704D-02 -0.45645140D-03
 -0.82817993D-04 -0.12638302D-02  0.14338429D-03  0.11646913D-02 -0.00000000D+00
  0.00000000D+00  0.00000000D+00 -0.00000000D+00  0.00000000D+00  0.00000000D+00
 -0.11906842D-04  0.74898426D-04  0.49223769D-04 -0.40371676D-03  0.00000000D+00
  0.00000000D+00 -0.10220373D-03
MO    2     MO 0.0        OCC NO =    2.0000000  ORB. ENERGY = -104.883112
  0.18400875D+01  0.33980445D+01  0.55132466D+01  0.73202322D+01  0.63263286D+01
  0.19792338D+01 -0.15219253D-02 -0.69305448D-02 -0.10799109D-01  0.20428076D-02
  0.13339567D-01  0.53778911D-02  0.00000000D+00  0.00000000D+00  0.00000000D+00
  0.00000000D+00  0.00000000D+00  0.00000000D+00  0.00000000D+00  0.00000000D+00
  0.00000000D+00  0.00000000D+00  0.00000000D+00  0.00000000D+00 -0.68889057D-03
 -0.86976108D-03 -0.89618868D-03 -0.64945646D-03 -0.28174650D-03 -0.51119745D-04
  0.11307712D-02 -0.12828845D-03 -0.10420699D-02 -0.00000000D+00  0.00000000D+00
  0.00000000D+00 -0.00000000D+00  0.00000000D+00  0.00000000D+00 -0.53638594D-05
  0.33740653D-04  0.22174593D-04  0.19723531D-03  0.00000000D+00  0.00000000D+00
 -0.95715810D-05  0.18400875D+01  0.33980445D+01  0.55132466D+01  0.73202322D+01
  0.63263286D+01  0.19792338D+01 -0.15219253D-02 -0.69305448D-02 -0.10799109D-01
  0.20428076D-02  0.13339567D-01  0.53778911D-02  0.00000000D+00  0.00000000D+00
  0.00000000D+00  0.00000000D+00  0.00000000D+00  0.00000000D+00  0.00000000D+00
  0.00000000D+00  0.00000000D+00  0.00000000D+00  0.00000000D+00  0.00000000D+00
  0.68889057D-03  0.86976108D-03  0.89618868D-03  0.64945646D-03  0.28174650D-03
  0.51119745D-04  0.11307712D-02 -0.12828845D-03 -0.10420699D-02 -0.00000000D+00
  0.00000000D+00  0.00000000D+00 -0.00000000D+00  0.00000000D+00  0.00000000D+00
  0.53638594D-05 -0.33740653D-04 -0.22174593D-04  0.19723531D-03  0.00000000D+00
  0.00000000D+00  0.95715810D-05
MO    3     MO 0.0        OCC NO =    2.0000000  ORB. ENERGY =  -10.625492
 -0.52964754D+00 -0.97808715D+00 -0.15869232D+01 -0.21070427D+01 -0.18209593D+01
 -0.56969916D+00 -0.12466757D+00 -0.56771129D+00 -0.88460231D+00  0.16733532D+00
  0.10927024D+01  0.44052663D+00  0.00000000D+00  0.00000000D+00  0.00000000D+00
  0.00000000D+00  0.00000000D+00  0.00000000D+00  0.00000000D+00  0.00000000D+00
  0.00000000D+00  0.00000000D+00  0.00000000D+00  0.00000000D+00 -0.10506785D+00
 -0.13265377D+00 -0.13668444D+00 -0.99053464D-01 -0.42971266D-01 -0.77966548D-02
 -0.67155290D-02  0.76189137D-03  0.61887414D-02 -0.00000000D+00  0.00000000D+00
  0.00000000D+00 -0.00000000D+00  0.00000000D+00  0.00000000D+00  0.96284676D-04
 -0.60566611D-03 -0.39804800D-03 -0.62268396D-03  0.00000000D+00  0.00000000D+00
  0.66937708D-04 -0.52964754D+00 -0.97808715D+00 -0.15869232D+01 -0.21070427D+01
 -0.18209593D+01 -0.56969916D+00 -0.12466757D+00 -0.56771129D+00 -0.88460231D+00
  0.16733532D+00  0.10927024D+01  0.44052663D+00  0.00000000D+00  0.00000000D+00
  0.00000000D+00  0.00000000D+00  0.00000000D+00  0.00000000D+00  0.00000000D+00
  0.00000000D+00  0.00000000D+00  0.00000000D+00  0.00000000D+00  0.00000000D+00
  0.10506785D+00  0.13265377D+00  0.13668444D+00  0.99053464D-01  0.42971266D-01
  0.77966548D-02 -0.67155290D-02  0.76189137D-03  0.61887414D-02 -0.00000000D+00
  0.00000000D+00  0.00000000D+00 -0.00000000D+00  0.00000000D+00  0.00000000D+00
 -0.96284676D-04  0.60566611D-03  0.39804800D-03 -0.62268396D-03  0.00000000D+00
  0.00000000D+00 -0.66937708D-04
MO    4     MO 0.0        OCC NO =    2.0000000  ORB. ENERGY =  -10.625386
 -0.52957442D+00 -0.97795212D+00 -0.15867041D+01 -0.21067519D+01 -0.18207079D+01
 -0.56962051D+00 -0.12466920D+00 -0.56771872D+00 -0.88461388D+00  0.16733751D+00
  0.10927167D+01  0.44053239D+00  0.00000000D+00  0.00000000D+00  0.00000000D+00
  0.00000000D+00  0.00000000D+00  0.00000000D+00  0.00000000D+00  0.00000000D+00
  0.00000000D+00  0.00000000D+00  0.00000000D+00  0.00000000D+00 -0.10423670D+00
 -0.13160440D+00 -0.13560318D+00 -0.98269890D-01 -0.42631337D-01 -0.77349784D-02
 -0.70827312D-02  0.80355126D-03  0.65271391D-02 -0.00000000D+00  0.00000000D+00
  0.00000000D+00 -0.00000000D+00  0.00000000D+00  0.00000000D+00  0.11156232D-03
 -0.70176809D-03 -0.46120689D-03 -0.12167717D-02  0.00000000D+00  0.00000000D+00
  0.32781531D-03  0.52957442D+00  0.97795212D+00  0.15867041D+01  0.21067519D+01
  0.18207079D+01  0.56962051D+00  0.12466920D+00  0.56771872D+00  0.88461388D+00
 -0.16733751D+00 -0.10927167D+01 -0.44053239D+00  0.00000000D+00  0.00000000D+00
  0.00000000D+00  0.00000000D+00  0.00000000D+00  0.00000000D+00  0.00000000D+00
  0.00000000D+00  0.00000000D+00  0.00000000D+00  0.00000000D+00  0.00000000D+00
 -0.10423670D+00 -0.13160440D+00 -0.13560318D+00 -0.98269890D-01 -0.42631337D-01
 -0.77349784D-02  0.70827312D-02 -0.80355126D-03 -0.65271391D-02 -0.00000000D+00
  0.00000000D+00  0.00000000D+00 -0.00000000D+00  0.00000000D+00  0.00000000D+00
  0.11156232D-03 -0.70176809D-03 -0.46120689D-03  0.12167717D-02  0.00000000D+00
  0.00000000D+00  0.32781531D-03
MO    5     MO 0.0        OCC NO =    2.0000000  ORB. ENERGY =   -8.094507
 -0.63340071D-02 -0.11696856D-01 -0.18977871D-01 -0.25197934D-01 -0.21776687D-01
 -0.68129808D-02 -0.15040002D-02 -0.68489178D-02 -0.10671918D-01  0.20187476D-02
  0.13182455D-01  0.53145510D-02  0.00000000D+00  0.00000000D+00  0.00000000D+00
  0.00000000D+00  0.00000000D+00  0.00000000D+00  0.00000000D+00  0.00000000D+00
  0.00000000D+00  0.00000000D+00  0.00000000D+00  0.00000000D+00  0.92434070D+01
  0.11670294D+02  0.12024895D+02  0.87142875D+01  0.37804227D+01  0.68591535D+00
  0.53780112D-03 -0.61014706D-04 -0.49561428D-03 -0.00000000D+00  0.00000000D+00
  0.00000000D+00 -0.00000000D+00  0.00000000D+00  0.00000000D+00 -0.14120049D-02
  0.88820314D-02  0.58373331D-02 -0.15336387D-05  0.00000000D+00  0.00000000D+00
 -0.53314616D-03 -0.63340071D-02 -0.11696856D-01 -0.18977871D-01 -0.25197934D-01
 -0.21776687D-01 -0.68129808D-02 -0.15040002D-02 -0.68489178D-02 -0.10671918D-01
  0.20187476D-02  0.13182455D-01  0.53145510D-02  0.00000000D+00  0.00000000D+00
  0.00000000D+00  0.00000000D+00  0.00000000D+00  0.00000000D+00  0.00000000D+00
  0.00000000D+00  0.00000000D+00  0.00000000D+00  0.00000000D+00  0.00000000D+00
 -0.92434070D+01 -0.11670294D+02 -0.12024895D+02 -0.87142875D+01 -0.37804227D+01
 -0.68591535D+00  0.53780112D-03 -0.61014706D-04 -0.49561428D-03 -0.00000000D+00
  0.00000000D+00  0.00000000D+00 -0.00000000D+00  0.00000000D+00  0.00000000D+00
  0.14120049D-02 -0.88820314D-02 -0.58373331D-02 -0.15336387D-05  0.00000000D+00
  0.00000000D+00  0.53314616D-03
MO    6     MO 0.0        OCC NO =    2.0000000  ORB. ENERGY =   -8.094350
 -0.64115798D-02 -0.11840107D-01 -0.19210293D-01 -0.25506533D-01 -0.22043387D-01
 -0.68964195D-02 -0.15206061D-02 -0.69245378D-02 -0.10789749D-01  0.20410370D-02
  0.13328005D-01  0.53732299D-02  0.00000000D+00  0.00000000D+00  0.00000000D+00
  0.00000000D+00  0.00000000D+00  0.00000000D+00  0.00000000D+00  0.00000000D+00
  0.00000000D+00  0.00000000D+00  0.00000000D+00  0.00000000D+00  0.92413092D+01
  0.11667646D+02  0.12022166D+02  0.87123097D+01  0.37795647D+01  0.68575967D+00
  0.88053854D-03 -0.99899012D-04 -0.81146627D-03 -0.00000000D+00  0.00000000D+00
  0.00000000D+00 -0.00000000D+00  0.00000000D+00  0.00000000D+00 -0.14734777D-02
  0.92687180D-02  0.60914662D-02  0.67857980D-03  0.00000000D+00  0.00000000D+00
 -0.77243821D-03  0.64115798D-02  0.11840107D-01  0.19210293D-01  0.25506533D-01
  0.22043387D-01  0.68964195D-02  0.15206061D-02  0.69245378D-02  0.10789749D-01
 -0.20410370D-02 -0.13328005D-01 -0.53732299D-02  0.00000000D+00  0.00000000D+00
  0.00000000D+00  0.00000000D+00  0.00000000D+00  0.00000000D+00  0.00000000D+00
  0.00000000D+00  0.00000000D+00  0.00000000D+00  0.00000000D+00  0.00000000D+00
  0.92413092D+01  0.11667646D+02  0.12022166D+02  0.87123097D+01  0.37795647D+01
  0.68575967D+00 -0.88053854D-03  0.99899012D-04  0.81146627D-03 -0.00000000D+00
  0.00000000D+00  0.00000000D+00 -0.00000000D+00  0.00000000D+00  0.00000000D+00
 -0.14734777D-02  0.92687180D-02  0.60914662D-02 -0.67857980D-03  0.00000000D+00
  0.00000000D+00 -0.77243821D-03
MO    7     MO 0.0        OCC NO =    2.0000000  ORB. ENERGY =   -8.087918
  0.00000000D+00  0.00000000D+00  0.00000000D+00  0.00000000D+00  0.00000000D+00
  0.00000000D+00 -0.00000000D+00 -0.00000000D+00 -0.00000000D+00  0.00000000D+00
  0.00000000D+00  0.00000000D+00  0.92527989D+01  0.11682152D+02  0.12037113D+02
  0.87231418D+01  0.37842639D+01  0.68661228D+00  0.00000000D+00  0.00000000D+00
  0.00000000D+00  0.00000000D+00  0.00000000D+00  0.00000000D+00  0.00000000D+00
  0.00000000D+00  0.00000000D+00  0.00000000D+00  0.00000000D+00  0.00000000D+00
 -0.00000000D+00  0.00000000D+00  0.00000000D+00 -0.12253952D-02  0.77081875D-02
  0.50658747D-02 -0.00000000D+00  0.00000000D+00  0.00000000D+00 -0.00000000D+00
  0.00000000D+00  0.00000000D+00  0.00000000D+00 -0.35336862D-03  0.00000000D+00
  0.00000000D+00  0.00000000D+00  0.00000000D+00  0.00000000D+00  0.00000000D+00
  0.00000000D+00  0.00000000D+00 -0.00000000D+00 -0.00000000D+00 -0.00000000D+00
  0.00000000D+00  0.00000000D+00  0.00000000D+00  0.92527989D+01  0.11682152D+02
  0.12037113D+02  0.87231418D+01  0.37842639D+01  0.68661228D+00  0.00000000D+00
  0.00000000D+00  0.00000000D+00  0.00000000D+00  0.00000000D+00  0.00000000D+00
  0.00000000D+00  0.00000000D+00  0.00000000D+00  0.00000000D+00  0.00000000D+00
  0.00000000D+00 -0.00000000D+00  0.00000000D+00  0.00000000D+00 -0.12253952D-02
  0.77081875D-02  0.50658747D-02 -0.00000000D+00  0.00000000D+00  0.00000000D+00
 -0.00000000D+00  0.00000000D+00  0.00000000D+00  0.00000000D+00 -0.35336862D-03
  0.00000000D+00  0.00000000D+00
MO    8     MO 0.0        OCC NO =    2.0000000  ORB. ENERGY =   -8.087918
  0.00000000D+00  0.00000000D+00  0.00000000D+00  0.00000000D+00  0.00000000D+00
  0.00000000D+00 -0.00000000D+00 -0.00000000D+00 -0.00000000D+00  0.00000000D+00
  0.00000000D+00  0.00000000D+00  0.00000000D+00  0.00000000D+00  0.00000000D+00
  0.00000000D+00  0.00000000D+00  0.00000000D+00  0.92527989D+01  0.11682152D+02
  0.12037113D+02  0.87231418D+01  0.37842639D+01  0.68661228D+00  0.00000000D+00
  0.00000000D+00  0.00000000D+00  0.00000000D+00  0.00000000D+00  0.00000000D+00
 -0.00000000D+00  0.00000000D+00  0.00000000D+00 -0.00000000D+00  0.00000000D+00
  0.00000000D+00 -0.12253952D-02  0.77081875D-02  0.50658747D-02 -0.00000000D+00
  0.00000000D+00  0.00000000D+00  0.00000000D+00  0.00000000D+00 -0.35336862D-03
  0.00000000D+00  0.00000000D+00  0.00000000D+00  0.00000000D+00  0.00000000D+00
  0.00000000D+00  0.00000000D+00 -0.00000000D+00 -0.00000000D+00 -0.00000000D+00
  0.00000000D+00  0.00000000D+00  0.00000000D+00  0.00000000D+00  0.00000000D+00
  0.00000000D+00  0.00000000D+00  0.00000000D+00  0.00000000D+00  0.92527989D+01
  0.11682152D+02  0.12037113D+02  0.87231418D+01  0.37842639D+01  0.68661228D+00
  0.00000000D+00  0.00000000D+00  0.00000000D+00  0.00000000D+00  0.00000000D+00
  0.00000000D+00 -0.00000000D+00  0.00000000D+00  0.00000000D+00 -0.00000000D+00
  0.00000000D+00  0.00000000D+00 -0.12253952D-02  0.77081875D-02  0.50658747D-02
 -0.00000000D+00  0.00000000D+00  0.00000000D+00  0.00000000D+00  0.00000000D+00
 -0.35336862D-03  0.00000000D+00
MO    9     MO 0.0        OCC NO =    2.0000000  ORB. ENERGY =   -8.087914
  0.00000000D+00  0.00000000D+00  0.00000000D+00  0.00000000D+00  0.00000000D+00
  0.00000000D+00 -0.00000000D+00 -0.00000000D+00 -0.00000000D+00  0.00000000D+00
  0.00000000D+00  0.00000000D+00  0.92521812D+01  0.11681372D+02  0.12036309D+02
  0.87225594D+01  0.37840112D+01  0.68656644D+00  0.00000000D+00  0.00000000D+00
  0.00000000D+00  0.00000000D+00  0.00000000D+00  0.00000000D+00  0.00000000D+00
  0.00000000D+00  0.00000000D+00  0.00000000D+00  0.00000000D+00  0.00000000D+00
 -0.00000000D+00  0.00000000D+00  0.00000000D+00 -0.12435708D-02  0.78225186D-02
  0.51410139D-02 -0.00000000D+00  0.00000000D+00  0.00000000D+00 -0.00000000D+00
  0.00000000D+00  0.00000000D+00  0.00000000D+00 -0.46251547D-03  0.00000000D+00
  0.00000000D+00  0.00000000D+00  0.00000000D+00  0.00000000D+00  0.00000000D+00
  0.00000000D+00  0.00000000D+00 -0.00000000D+00 -0.00000000D+00 -0.00000000D+00
  0.00000000D+00  0.00000000D+00  0.00000000D+00 -0.92521812D+01 -0.11681372D+02
 -0.12036309D+02 -0.87225594D+01 -0.37840112D+01 -0.68656644D+00  0.00000000D+00
  0.00000000D+00  0.00000000D+00  0.00000000D+00  0.00000000D+00  0.00000000D+00
  0.00000000D+00  0.00000000D+00  0.00000000D+00  0.00000000D+00  0.00000000D+00
  0.00000000D+00 -0.00000000D+00  0.00000000D+00  0.00000000D+00  0.12435708D-02
 -0.78225186D-02 -0.51410139D-02 -0.00000000D+00  0.00000000D+00  0.00000000D+00
 -0.00000000D+00  0.00000000D+00  0.00000000D+00  0.00000000D+00  0.46251547D-03
  0.00000000D+00  0.00000000D+00
MO   10     MO 0.0        OCC NO =    2.0000000  ORB. ENERGY =   -8.087914
  0.00000000D+00  0.00000000D+00  0.00000000D+00  0.00000000D+00  0.00000000D+00
  0.00000000D+00 -0.00000000D+00 -0.00000000D+00 -0.00000000D+00  0.00000000D+00
  0.00000000D+00  0.00000000D+00  0.00000000D+00  0.00000000D+00  0.00000000D+00
  0.00000000D+00  0.00000000D+00  0.00000000D+00  0.92521812D+01  0.11681372D+02
  0.12036309D+02  0.87225594D+01  0.37840112D+01  0.68656644D+00  0.00000000D+00
  0.00000000D+00  0.00000000D+00  0.00000000D+00  0.00000000D+00  0.00000000D+00
 -0.00000000D+00  0.00000000D+00  0.00000000D+00 -0.00000000D+00  0.00000000D+00
  0.00000000D+00 -0.12435708D-02  0.78225186D-02  0.51410139D-02 -0.00000000D+00
  0.00000000D+00  0.00000000D+00  0.00000000D+00  0.00000000D+00 -0.46251547D-03
  0.00000000D+00  0.00000000D+00  0.00000000D+00  0.00000000D+00  0.00000000D+00
  0.00000000D+00  0.00000000D+00 -0.00000000D+00 -0.00000000D+00 -0.00000000D+00
  0.00000000D+00  0.00000000D+00  0.00000000D+00  0.00000000D+00  0.00000000D+00
  0.00000000D+00  0.00000000D+00  0.00000000D+00  0.00000000D+00 -0.92521812D+01
 -0.11681372D+02 -0.12036309D+02 -0.87225594D+01 -0.37840112D+01 -0.68656644D+00
  0.00000000D+00  0.00000000D+00  0.00000000D+00  0.00000000D+00  0.00000000D+00
  0.00000000D+00 -0.00000000D+00  0.00000000D+00  0.00000000D+00 -0.00000000D+00
  0.00000000D+00  0.00000000D+00  0.12435708D-02 -0.78225186D-02 -0.51410139D-02
 -0.00000000D+00  0.00000000D+00  0.00000000D+00  0.00000000D+00  0.00000000D+00
  0.46251547D-03  0.00000000D+00
MO   11     MO 0.0        OCC NO =    2.0000000  ORB. ENERGY =   -1.246002
  0.14461676D+00  0.26706023D+00  0.43329889D+00  0.57531410D+00  0.49720089D+00
  0.15555259D+00  0.42992775D-01  0.19578054D+00  0.30506337D+00 -0.57707147D-01
 -0.37682862D+00 -0.15191972D+00  0.00000000D+00  0.00000000D+00  0.00000000D+00
  0.00000000D+00  0.00000000D+00  0.00000000D+00  0.00000000D+00  0.00000000D+00
  0.00000000D+00  0.00000000D+00  0.00000000D+00  0.00000000D+00  0.70687056D+00
  0.89246178D+00  0.91957914D+00  0.66640723D+00  0.28910006D+00  0.52453967D-01
 -0.21474574D+00  0.24363372D-01  0.19790040D+00 -0.00000000D+00  0.00000000D+00
  0.00000000D+00 -0.00000000D+00  0.00000000D+00  0.00000000D+00  0.11217880D-01
 -0.70564603D-01 -0.46375550D-01  0.30273191D-01  0.00000000D+00  0.00000000D+00
 -0.23909551D-02  0.14461676D+00  0.26706023D+00  0.43329889D+00  0.57531410D+00
  0.49720089D+00  0.15555259D+00  0.42992775D-01  0.19578054D+00  0.30506337D+00
 -0.57707147D-01 -0.37682862D+00 -0.15191972D+00  0.00000000D+00  0.00000000D+00
  0.00000000D+00  0.00000000D+00  0.00000000D+00  0.00000000D+00  0.00000000D+00
  0.00000000D+00  0.00000000D+00  0.00000000D+00  0.00000000D+00  0.00000000D+00
 -0.70687056D+00 -0.89246178D+00 -0.91957914D+00 -0.66640723D+00 -0.28910006D+00
 -0.52453967D-01 -0.21474574D+00  0.24363372D-01  0.19790040D+00 -0.00000000D+00
  0.00000000D+00  0.00000000D+00 -0.00000000D+00  0.00000000D+00  0.00000000D+00
 -0.11217880D-01  0.70564603D-01  0.46375550D-01  0.30273191D-01  0.00000000D+00
  0.00000000D+00  0.23909551D-02
MO   12     MO 0.0        OCC NO =    2.0000000  ORB. ENERGY =   -1.025579
  0.15721329D+00  0.29032193D+00  0.47104043D+00  0.62542557D+00  0.54050849D+00
  0.16910166D+00  0.47075361D-01  0.21437183D+00  0.33403213D+00 -0.63187008D-01
 -0.41261220D+00 -0.16634599D+00  0.00000000D+00  0.00000000D+00  0.00000000D+00
  0.00000000D+00  0.00000000D+00  0.00000000D+00  0.00000000D+00  0.00000000D+00
  0.00000000D+00  0.00000000D+00  0.00000000D+00  0.00000000D+00 -0.32748799D+00
 -0.41347105D+00 -0.42603433D+00 -0.30874162D+00 -0.13393796D+00 -0.24301541D-01
 -0.23775350D+00  0.26973652D-01  0.21910335D+00 -0.00000000D+00  0.00000000D+00
  0.00000000D+00 -0.00000000D+00  0.00000000D+00  0.00000000D+00 -0.49278282D-02
  0.30997856D-01  0.20372008D-01  0.49599078D-01  0.00000000D+00  0.00000000D+00
 -0.17916029D-02 -0.15721329D+00 -0.29032193D+00 -0.47104043D+00 -0.62542557D+00
 -0.54050849D+00 -0.16910166D+00 -0.47075361D-01 -0.21437183D+00 -0.33403213D+00
  0.63187008D-01  0.41261220D+00  0.16634599D+00  0.00000000D+00  0.00000000D+00
  0.00000000D+00  0.00000000D+00  0.00000000D+00  0.00000000D+00  0.00000000D+00
  0.00000000D+00  0.00000000D+00  0.00000000D+00  0.00000000D+00  0.00000000D+00
 -0.32748799D+00 -0.41347105D+00 -0.42603433D+00 -0.30874162D+00 -0.13393796D+00
 -0.24301541D-01  0.23775350D+00 -0.26973652D-01 -0.21910335D+00 -0.00000000D+00
  0.00000000D+00  0.00000000D+00 -0.00000000D+00  0.00000000D+00  0.00000000D+00
 -0.49278282D-02  0.30997856D-01  0.20372008D-01 -0.49599078D-01  0.00000000D+00
  0.00000000D+00 -0.17916029D-02
MO   13     MO 0.0        OCC NO =    2.0000000  ORB. ENERGY =   -0.582939
  0.43232109D-01  0.79835678D-01  0.12953149D+00  0.17198589D+00  0.14863452D+00
  0.46501294D-01  0.12893130D-01  0.58712750D-01  0.91485646D-01 -0.17305833D-01
 -0.11300737D+00 -0.45559301D-01  0.00000000D+00  0.00000000D+00  0.00000000D+00
  0.00000000D+00  0.00000000D+00  0.00000000D+00  0.00000000D+00  0.00000000D+00
  0.00000000D+00  0.00000000D+00  0.00000000D+00  0.00000000D+00 -0.26104524D+01
 -0.32958354D+01 -0.33959790D+01 -0.24610225D+01 -0.10676381D+01 -0.19371097D+00
 -0.69812096D-01  0.79203342D-02  0.64335812D-01 -0.00000000D+00  0.00000000D+00
  0.00000000D+00 -0.00000000D+00  0.00000000D+00  0.00000000D+00 -0.43824957D-01
  0.27567513D+00  0.18117562D+00  0.21854774D-01  0.00000000D+00  0.00000000D+00
  0.25298834D-01  0.43232109D-01  0.79835678D-01  0.12953149D+00  0.17198589D+00
  0.14863452D+00  0.46501294D-01  0.12893130D-01  0.58712750D-01  0.91485646D-01
 -0.17305833D-01 -0.11300737D+00 -0.45559301D-01  0.00000000D+00  0.00000000D+00
  0.00000000D+00  0.00000000D+00  0.00000000D+00  0.00000000D+00  0.00000000D+00
  0.00000000D+00  0.00000000D+00  0.00000000D+00  0.00000000D+00  0.00000000D+00
  0.26104524D+01  0.32958354D+01  0.33959790D+01  0.24610225D+01  0.10676381D+01
  0.19371097D+00 -0.69812096D-01  0.79203342D-02  0.64335812D-01 -0.00000000D+00
  0.00000000D+00  0.00000000D+00 -0.00000000D+00  0.00000000D+00  0.00000000D+00
  0.43824957D-01 -0.27567513D+00 -0.18117562D+00  0.21854774D-01  0.00000000D+00
  0.00000000D+00 -0.25298834D-01
MO   14     MO 0.0        OCC NO =    2.0000000  ORB. ENERGY =   -0.580226
  0.00000000D+00  0.00000000D+00  0.00000000D+00  0.00000000D+00  0.00000000D+00
  0.00000000D+00 -0.00000000D+00 -0.00000000D+00 -0.00000000D+00  0.00000000D+00
  0.00000000D+00  0.00000000D+00  0.00000000D+00  0.00000000D+00  0.00000000D+00
  0.00000000D+00  0.00000000D+00  0.00000000D+00 -0.25764829D+01 -0.32529470D+01
 -0.33517875D+01 -0.24289975D+01 -0.10537450D+01 -0.19119023D+00  0.00000000D+00
  0.00000000D+00  0.00000000D+00  0.00000000D+00  0.00000000D+00  0.00000000D+00
 -0.00000000D+00  0.00000000D+00  0.00000000D+00 -0.00000000D+00  0.00000000D+00
  0.00000000D+00 -0.44032130D-01  0.27697833D+00  0.18203209D+00 -0.00000000D+00
  0.00000000D+00  0.00000000D+00  0.00000000D+00  0.00000000D+00  0.30458921D-01
  0.00000000D+00  0.00000000D+00  0.00000000D+00  0.00000000D+00  0.00000000D+00
  0.00000000D+00  0.00000000D+00 -0.00000000D+00 -0.00000000D+00 -0.00000000D+00
  0.00000000D+00  0.00000000D+00  0.00000000D+00  0.00000000D+00  0.00000000D+00
  0.00000000D+00  0.00000000D+00  0.00000000D+00  0.00000000D+00 -0.25764829D+01
 -0.32529470D+01 -0.33517875D+01 -0.24289975D+01 -0.10537450D+01 -0.19119023D+00
  0.00000000D+00  0.00000000D+00  0.00000000D+00  0.00000000D+00  0.00000000D+00
  0.00000000D+00 -0.00000000D+00  0.00000000D+00  0.00000000D+00 -0.00000000D+00
  0.00000000D+00  0.00000000D+00 -0.44032130D-01  0.27697833D+00  0.18203209D+00
 -0.00000000D+00  0.00000000D+00  0.00000000D+00  0.00000000D+00  0.00000000D+00
  0.30458921D-01  0.00000000D+00
MO   15     MO 0.0        OCC NO =    2.0000000  ORB. ENERGY =   -0.580226
  0.00000000D+00  0.00000000D+00  0.00000000D+00  0.00000000D+00  0.00000000D+00
  0.00000000D+00 -0.00000000D+00 -0.00000000D+00 -0.00000000D+00  0.00000000D+00
  0.00000000D+00  0.00000000D+00 -0.25764829D+01 -0.32529470D+01 -0.33517875D+01
 -0.24289975D+01 -0.10537450D+01 -0.19119023D+00  0.00000000D+00  0.00000000D+00
  0.00000000D+00  0.00000000D+00  0.00000000D+00  0.00000000D+00  0.00000000D+00
  0.00000000D+00  0.00000000D+00  0.00000000D+00  0.00000000D+00  0.00000000D+00
 -0.00000000D+00  0.00000000D+00  0.00000000D+00 -0.44032130D-01  0.27697833D+00
  0.18203209D+00 -0.00000000D+00  0.00000000D+00  0.00000000D+00 -0.00000000D+00
  0.00000000D+00  0.00000000D+00  0.00000000D+00  0.30458921D-01  0.00000000D+00
  0.00000000D+00  0.00000000D+00  0.00000000D+00  0.00000000D+00  0.00000000D+00
  0.00000000D+00  0.00000000D+00 -0.00000000D+00 -0.00000000D+00 -0.00000000D+00
  0.00000000D+00  0.00000000D+00  0.00000000D+00 -0.25764829D+01 -0.32529470D+01
 -0.33517875D+01 -0.24289975D+01 -0.10537450D+01 -0.19119023D+00  0.00000000D+00
  0.00000000D+00  0.00000000D+00  0.00000000D+00  0.00000000D+00  0.00000000D+00
  0.00000000D+00  0.00000000D+00  0.00000000D+00  0.00000000D+00  0.00000000D+00
  0.00000000D+00 -0.00000000D+00  0.00000000D+00  0.00000000D+00 -0.44032130D-01
  0.27697833D+00  0.18203209D+00 -0.00000000D+00  0.00000000D+00  0.00000000D+00
 -0.00000000D+00  0.00000000D+00  0.00000000D+00  0.00000000D+00  0.30458921D-01
  0.00000000D+00  0.00000000D+00
MO   16     MO 0.0        OCC NO =    2.0000000  ORB. ENERGY =   -0.458529
  0.00000000D+00  0.00000000D+00  0.00000000D+00  0.00000000D+00  0.00000000D+00
  0.00000000D+00 -0.00000000D+00 -0.00000000D+00 -0.00000000D+00  0.00000000D+00
  0.00000000D+00  0.00000000D+00  0.00000000D+00  0.00000000D+00  0.00000000D+00
  0.00000000D+00  0.00000000D+00  0.00000000D+00 -0.27821375D+01 -0.35125969D+01
 -0.36193268D+01 -0.26228798D+01 -0.11378549D+01 -0.20645102D+00  0.00000000D+00
  0.00000000D+00  0.00000000D+00  0.00000000D+00  0.00000000D+00  0.00000000D+00
 -0.00000000D+00  0.00000000D+00  0.00000000D+00 -0.00000000D+00  0.00000000D+00
  0.00000000D+00 -0.48555843D-01  0.30543415D+00  0.20073346D+00 -0.00000000D+00
  0.00000000D+00  0.00000000D+00  0.00000000D+00  0.00000000D+00  0.39517718D-01
  0.00000000D+00  0.00000000D+00  0.00000000D+00  0.00000000D+00  0.00000000D+00
  0.00000000D+00  0.00000000D+00 -0.00000000D+00 -0.00000000D+00 -0.00000000D+00
  0.00000000D+00  0.00000000D+00  0.00000000D+00  0.00000000D+00  0.00000000D+00
  0.00000000D+00  0.00000000D+00  0.00000000D+00  0.00000000D+00  0.27821375D+01
  0.35125969D+01  0.36193268D+01  0.26228798D+01  0.11378549D+01  0.20645102D+00
  0.00000000D+00  0.00000000D+00  0.00000000D+00  0.00000000D+00  0.00000000D+00
  0.00000000D+00 -0.00000000D+00  0.00000000D+00  0.00000000D+00 -0.00000000D+00
  0.00000000D+00  0.00000000D+00  0.48555843D-01 -0.30543415D+00 -0.20073346D+00
 -0.00000000D+00  0.00000000D+00  0.00000000D+00  0.00000000D+00  0.00000000D+00
 -0.39517718D-01  0.00000000D+00
MO   17     MO 0.0        OCC NO =    2.0000000  ORB. ENERGY =   -0.458529
  0.00000000D+00  0.00000000D+00  0.00000000D+00  0.00000000D+00  0.00000000D+00
  0.00000000D+00 -0.00000000D+00 -0.00000000D+00 -0.00000000D+00  0.00000000D+00
  0.00000000D+00  0.00000000D+00 -0.27821375D+01 -0.35125969D+01 -0.36193268D+01
 -0.26228798D+01 -0.11378549D+01 -0.20645102D+00  0.00000000D+00  0.00000000D+00
  0.00000000D+00  0.00000000D+00  0.00000000D+00  0.00000000D+00  0.00000000D+00
  0.00000000D+00  0.00000000D+00  0.00000000D+00  0.00000000D+00  0.00000000D+00
 -0.00000000D+00  0.00000000D+00  0.00000000D+00 -0.48555843D-01  0.30543415D+00
  0.20073346D+00 -0.00000000D+00  0.00000000D+00  0.00000000D+00 -0.00000000D+00
  0.00000000D+00  0.00000000D+00  0.00000000D+00  0.39517718D-01  0.00000000D+00
  0.00000000D+00  0.00000000D+00  0.00000000D+00  0.00000000D+00  0.00000000D+00
  0.00000000D+00  0.00000000D+00 -0.00000000D+00 -0.00000000D+00 -0.00000000D+00
  0.00000000D+00  0.00000000D+00  0.00000000D+00  0.27821375D+01  0.35125969D+01
  0.36193268D+01  0.26228798D+01  0.11378549D+01  0.20645102D+00  0.00000000D+00
  0.00000000D+00  0.00000000D+00  0.00000000D+00  0.00000000D+00  0.00000000D+00
  0.00000000D+00  0.00000000D+00  0.00000000D+00  0.00000000D+00  0.00000000D+00
  0.00000000D+00 -0.00000000D+00  0.00000000D+00  0.00000000D+00  0.48555843D-01
 -0.30543415D+00 -0.20073346D+00 -0.00000000D+00  0.00000000D+00  0.00000000D+00
 -0.00000000D+00  0.00000000D+00  0.00000000D+00  0.00000000D+00 -0.39517718D-01
  0.00000000D+00  0.00000000D+00
END DATA
 TOTAL ENERGY =     -918.862044367492 THE VIRIAL(-V/T)=   1.99930102
