 TITLE
GAUSSIAN              1 MOL ORBITALS     40 PRIMITIVES        2 NUCLEI
  H    1    (CENTRE  1)   0.00000000  0.00000000  0.70014353  CHARGE =  1.0
  H    2    (CENTRE  2)   0.00000000  0.00000000 -0.70014353  CHARGE =  1.0
CENTRE ASSIGNMENTS    1  1  1  1  1  1  1  1  1  1  1  1  1  1  1  1  1  1  1  1
CENTRE ASSIGNMENTS    2  2  2  2  2  2  2  2  2  2  2  2  2  2  2  2  2  2  2  2
TYPE ASSIGNMENTS      1  1  1  1  1  1  1  1  1  1  1  1  1  1  1  1  1  1  1  1
TYPE ASSIGNMENTS      1  1  1  1  1  1  1  1  1  1  1  1  1  1  1  1  1  1  1  1
EXPONENTS  0.1373909D+05 0.7016361D+04 0.3583159D+04 0.1829870D+04 0.9344891D+03
EXPONENTS  0.4772307D+03 0.2437151D+03 0.1244619D+03 0.6356100D+02 0.3245972D+02
EXPONENTS  0.1657673D+02 0.8465508D+01 0.4323218D+01 0.2207808D+01 0.1127497D+01
EXPONENTS  0.5757971D+00 0.2940516D+00 0.1501681D+00 0.7668877D-01 0.3916390D-01
EXPONENTS  0.1373909D+05 0.7016361D+04 0.3583159D+04 0.1829870D+04 0.9344891D+03
EXPONENTS  0.4772307D+03 0.2437151D+03 0.1244619D+03 0.6356100D+02 0.3245972D+02
EXPONENTS  0.1657673D+02 0.8465508D+01 0.4323218D+01 0.2207808D+01 0.1127497D+01
EXPONENTS  0.5757971D+00 0.2940516D+00 0.1501681D+00 0.7668877D-01 0.3916390D-01
MO    1     MO 0.0        OCC NO =    2.0000000  ORB. ENERGY =   -0.595664
  0.29446530D-02 -0.17444490D-02  0.42174522D-02 -0.38641586D-03  0.53527169D-02
  0.15706944D-02  0.86205271D-02  0.46549782D-02  0.15315228D-01  0.10547692D-01
  0.28011574D-01  0.21234454D-01  0.51077319D-01  0.34553695D-01  0.74856738D-01
  0.67541517D-01  0.42069157D-01  0.23665977D-01  0.37205047D-02  0.21307595D-03
  0.29446530D-02 -0.17444490D-02  0.42174522D-02 -0.38641586D-03  0.53527169D-02
  0.15706944D-02  0.86205271D-02  0.46549782D-02  0.15315228D-01  0.10547692D-01
  0.28011574D-01  0.21234454D-01  0.51077319D-01  0.34553695D-01  0.74856738D-01
  0.67541517D-01  0.42069157D-01  0.23665977D-01  0.37205047D-02  0.21307595D-03
END DATA
 TOTAL ENERGY =       -1.128538859108 THE VIRIAL(-V/T)=   2.00835978
