 TITLE
GAUSSIAN              5 MOL ORBITALS    111 PRIMITIVES        3 NUCLEI
  O    1    (CENTRE  1)  -0.00000000 -0.00000000  0.20053832  CHARGE =  8.0
  H    2    (CENTRE  2)   0.00000000  1.48892146 -0.80215329  CHARGE =  1.0
  H    3    (CENTRE  3)  -0.00000000 -1.48892146 -0.80215329  CHARGE =  1.0
CENTRE ASSIGNMENTS    1  1  1  1  1  1  1  1  1  1  1  1  1  1  1  1  1  1  1  1
CENTRE ASSIGNMENTS    1  1  1  1  1  1  1  1  1  1  1  1  1  1  1  1  1  1  1  1
CENTRE ASSIGNMENTS    1  1  1  1  1  1  1  1  1  1  1  1  1  1  1  1  1  1  1  1
CENTRE ASSIGNMENTS    1  1  1  1  1  1  1  1  1  1  1  2  2  2  2  2  2  2  2  2
CENTRE ASSIGNMENTS    2  2  2  2  2  2  2  2  2  2  2  3  3  3  3  3  3  3  3  3
CENTRE ASSIGNMENTS    3  3  3  3  3  3  3  3  3  3  3
TYPE ASSIGNMENTS      1  1  1  1  1  1  1  1  1  1  1  1  1  1  1  1  1  1  1  1
TYPE ASSIGNMENTS      1  1  1  2  3  4  2  3  4  2  3  4  2  3  4  2  3  4  2  3
TYPE ASSIGNMENTS      4  2  3  4  2  3  4  2  3  4  2  3  4  2  3  4  2  3  4  2
TYPE ASSIGNMENTS      3  4  2  3  4  2  3  4  2  3  4  1  1  1  1  1  1  1  1  1
TYPE ASSIGNMENTS      1  1  1  1  1  1  1  1  1  1  1  1  1  1  1  1  1  1  1  1
TYPE ASSIGNMENTS      1  1  1  1  1  1  1  1  1  1  1
EXPONENTS  0.3955372D+06 0.2019954D+06 0.1031562D+06 0.5268047D+05 0.2690319D+05
EXPONENTS  0.1373909D+05 0.7016361D+04 0.3583159D+04 0.1829870D+04 0.9344891D+03
EXPONENTS  0.4772307D+03 0.2437151D+03 0.1244619D+03 0.6356100D+02 0.3245972D+02
EXPONENTS  0.1657673D+02 0.8465508D+01 0.4323218D+01 0.2207808D+01 0.1127497D+01
EXPONENTS  0.5757971D+00 0.2940516D+00 0.1501681D+00 0.1829870D+04 0.1829870D+04
EXPONENTS  0.1829870D+04 0.9344891D+03 0.9344891D+03 0.9344891D+03 0.4772307D+03
EXPONENTS  0.4772307D+03 0.4772307D+03 0.2437151D+03 0.2437151D+03 0.2437151D+03
EXPONENTS  0.1244619D+03 0.1244619D+03 0.1244619D+03 0.6356100D+02 0.6356100D+02
EXPONENTS  0.6356100D+02 0.3245972D+02 0.3245972D+02 0.3245972D+02 0.1657673D+02
EXPONENTS  0.1657673D+02 0.1657673D+02 0.8465508D+01 0.8465508D+01 0.8465508D+01
EXPONENTS  0.4323218D+01 0.4323218D+01 0.4323218D+01 0.2207808D+01 0.2207808D+01
EXPONENTS  0.2207808D+01 0.1127497D+01 0.1127497D+01 0.1127497D+01 0.5757971D+00
EXPONENTS  0.5757971D+00 0.5757971D+00 0.2940516D+00 0.2940516D+00 0.2940516D+00
EXPONENTS  0.1501681D+00 0.1501681D+00 0.1501681D+00 0.7668877D-01 0.7668877D-01
EXPONENTS  0.7668877D-01 0.1373909D+05 0.7016361D+04 0.3583159D+04 0.1829870D+04
EXPONENTS  0.9344891D+03 0.4772307D+03 0.2437151D+03 0.1244619D+03 0.6356100D+02
EXPONENTS  0.3245972D+02 0.1657673D+02 0.8465508D+01 0.4323218D+01 0.2207808D+01
EXPONENTS  0.1127497D+01 0.5757971D+00 0.2940516D+00 0.1501681D+00 0.7668877D-01
EXPONENTS  0.3916390D-01 0.1373909D+05 0.7016361D+04 0.3583159D+04 0.1829870D+04
EXPONENTS  0.9344891D+03 0.4772307D+03 0.2437151D+03 0.1244619D+03 0.6356100D+02
EXPONENTS  0.3245972D+02 0.1657673D+02 0.8465508D+01 0.4323218D+01 0.2207808D+01
EXPONENTS  0.1127497D+01 0.5757971D+00 0.2940516D+00 0.1501681D+00 0.7668877D-01
EXPONENTS  0.3916390D-01
MO    1     MO 0.0        OCC NO =    2.0000000  ORB. ENERGY =  -20.564220
  0.10715501D+00 -0.49791791D-01  0.13032460D+00  0.31041259D-01  0.14330629D+00
  0.13874970D+00  0.23073003D+00  0.30058009D+00  0.43108748D+00  0.59084344D+00
  0.81586629D+00  0.11000364D+01  0.14352889D+01  0.17529984D+01  0.19058041D+01
  0.16954222D+01  0.10286923D+01  0.30868725D+00  0.28524428D-01  0.19208544D-02
  0.18587963D-03  0.13578309D-03  0.11449033D-04  0.00000000D+00  0.00000000D+00
 -0.30034030D-02  0.00000000D+00  0.00000000D+00 -0.12065482D-02  0.00000000D+00
  0.00000000D+00 -0.30924395D-02  0.00000000D+00  0.00000000D+00 -0.42145977D-02
  0.00000000D+00  0.00000000D+00 -0.53998941D-02  0.00000000D+00  0.00000000D+00
 -0.82945324D-02  0.00000000D+00  0.00000000D+00 -0.11249288D-01  0.00000000D+00
  0.00000000D+00 -0.17786544D-01  0.00000000D+00  0.00000000D+00 -0.17878481D-01
  0.00000000D+00  0.00000000D+00 -0.72254289D-02  0.00000000D+00  0.00000000D+00
 -0.20771125D-03  0.00000000D+00  0.00000000D+00 -0.17338230D-03  0.00000000D+00
  0.00000000D+00  0.37882348D-04  0.00000000D+00  0.00000000D+00 -0.17104117D-04
  0.00000000D+00  0.00000000D+00 -0.15135554D-05  0.00000000D+00  0.00000000D+00
  0.10198044D-06  0.23718999D-05 -0.11496269D-05  0.29641445D-05  0.53039268D-06
  0.33469997D-05  0.27891771D-05  0.53477784D-05  0.62955548D-05  0.93340498D-05
  0.14143881D-04  0.11449261D-04  0.34602976D-04  0.37274783D-04 -0.46590866D-04
  0.29237887D-03 -0.22115892D-03  0.10651248D-03 -0.41947322D-04  0.11181770D-04
 -0.14885007D-05  0.23718999D-05 -0.11496269D-05  0.29641445D-05  0.53039268D-06
  0.33469997D-05  0.27891771D-05  0.53477784D-05  0.62955548D-05  0.93340498D-05
  0.14143881D-04  0.11449261D-04  0.34602976D-04  0.37274783D-04 -0.46590866D-04
  0.29237887D-03 -0.22115892D-03  0.10651248D-03 -0.41947322D-04  0.11181770D-04
 -0.14885007D-05
MO    2     MO 0.0        OCC NO =    2.0000000  ORB. ENERGY =   -1.365469
 -0.21878089D-01  0.10433184D-01 -0.27061888D-01 -0.54579612D-02 -0.30269975D-01
 -0.26747670D-01 -0.48759548D-01 -0.58909316D-01 -0.90691493D-01 -0.11735077D+00
 -0.17207314D+00 -0.22358821D+00 -0.31158641D+00 -0.38026947D+00 -0.46547483D+00
 -0.46200519D+00 -0.40442140D+00 -0.15984347D+00  0.73891541D-01  0.17171970D+00
  0.19885374D+00  0.55933553D-01  0.17169903D-01  0.00000000D+00  0.00000000D+00
 -0.65270124D-02  0.00000000D+00  0.00000000D+00 -0.74512596D-01  0.00000000D+00
  0.00000000D+00  0.39025205D-01  0.00000000D+00  0.00000000D+00 -0.12807243D+00
  0.00000000D+00  0.00000000D+00  0.15727433D-01  0.00000000D+00  0.00000000D+00
 -0.15940869D+00  0.00000000D+00  0.00000000D+00 -0.34733606D-01  0.00000000D+00
  0.00000000D+00 -0.18157879D+00  0.00000000D+00  0.00000000D+00 -0.64033369D-01
  0.00000000D+00  0.00000000D+00 -0.16740978D+00  0.00000000D+00  0.00000000D+00
 -0.52399285D-01  0.00000000D+00  0.00000000D+00 -0.83619032D-01  0.00000000D+00
  0.00000000D+00 -0.43466788D-01  0.00000000D+00  0.00000000D+00 -0.22606467D-02
  0.00000000D+00  0.00000000D+00 -0.21340483D-02  0.00000000D+00  0.00000000D+00
  0.88944084D-04  0.17274711D-02 -0.15975984D-02  0.34467396D-02 -0.21205450D-02
  0.53015000D-02 -0.25046805D-02  0.85246162D-02 -0.27804540D-02  0.14143815D-01
 -0.25573436D-02  0.23982963D-01 -0.18815849D-02  0.41339558D-01 -0.46212649D-02
  0.64243054D-01  0.36003926D-02  0.13592655D-01 -0.12897753D-02  0.17807482D-03
  0.28036193D-04  0.17274711D-02 -0.15975984D-02  0.34467396D-02 -0.21205450D-02
  0.53015000D-02 -0.25046805D-02  0.85246162D-02 -0.27804540D-02  0.14143815D-01
 -0.25573436D-02  0.23982963D-01 -0.18815849D-02  0.41339558D-01 -0.46212649D-02
  0.64243054D-01  0.36003926D-02  0.13592655D-01 -0.12897753D-02  0.17807482D-03
  0.28036193D-04
MO    3     MO 0.0        OCC NO =    2.0000000  ORB. ENERGY =   -0.741107
  0.00000000D+00  0.00000000D+00  0.00000000D+00  0.00000000D+00  0.00000000D+00
  0.00000000D+00  0.00000000D+00  0.00000000D+00  0.00000000D+00  0.00000000D+00
  0.00000000D+00  0.00000000D+00  0.00000000D+00  0.00000000D+00  0.00000000D+00
  0.00000000D+00  0.00000000D+00  0.00000000D+00  0.00000000D+00  0.00000000D+00
  0.00000000D+00  0.00000000D+00  0.00000000D+00  0.00000000D+00  0.15645221D+00
  0.00000000D+00  0.00000000D+00  0.14488575D+00  0.00000000D+00  0.00000000D+00
  0.10563709D+00  0.00000000D+00  0.00000000D+00  0.34978957D+00  0.00000000D+00
  0.00000000D+00  0.23170036D+00  0.00000000D+00  0.00000000D+00  0.54874396D+00
  0.00000000D+00  0.00000000D+00  0.45725128D+00  0.00000000D+00  0.00000000D+00
  0.72770230D+00  0.00000000D+00  0.00000000D+00  0.59839104D+00  0.00000000D+00
  0.00000000D+00  0.71832005D+00  0.00000000D+00  0.00000000D+00  0.44000728D+00
  0.00000000D+00  0.00000000D+00  0.33344511D+00  0.00000000D+00  0.00000000D+00
  0.16716635D+00  0.00000000D+00  0.00000000D+00  0.22790169D-01  0.00000000D+00
  0.00000000D+00  0.12122053D-01  0.00000000D+00  0.00000000D+00 -0.85462277D-03
  0.00000000D+00  0.27160381D-02 -0.26400438D-02  0.56363611D-02 -0.37566460D-02
  0.88178521D-02 -0.47003675D-02  0.14175784D-01 -0.55809461D-02  0.23377313D-01
 -0.58090997D-02  0.39276017D-01 -0.48641931D-02  0.66010975D-01 -0.10823937D-02
  0.79428260D-01  0.59188774D-01  0.13414926D-01  0.16747574D-01 -0.10849365D-02
  0.10993155D-02 -0.27160381D-02  0.26400438D-02 -0.56363611D-02  0.37566460D-02
 -0.88178521D-02  0.47003675D-02 -0.14175784D-01  0.55809461D-02 -0.23377313D-01
  0.58090997D-02 -0.39276017D-01  0.48641931D-02 -0.66010975D-01  0.10823937D-02
 -0.79428260D-01 -0.59188774D-01 -0.13414926D-01 -0.16747574D-01  0.10849365D-02
 -0.10993155D-02
MO    4     MO 0.0        OCC NO =    2.0000000  ORB. ENERGY =   -0.560998
 -0.72435671D-02  0.31948951D-02 -0.85205196D-02 -0.26626536D-02 -0.90455108D-02
 -0.10403796D-01 -0.14577002D-01 -0.21992627D-01 -0.27700103D-01 -0.42780348D-01
 -0.53619936D-01 -0.80266072D-01 -0.98503580D-01 -0.13597621D+00 -0.14807688D+00
 -0.16929967D+00 -0.12648019D+00 -0.70449615D-01  0.40338350D-01  0.71734567D-01
  0.55343829D-01  0.42653818D-01  0.16660196D-01  0.00000000D+00  0.00000000D+00
  0.21084280D+00  0.00000000D+00  0.00000000D+00  0.92014854D-01  0.00000000D+00
  0.00000000D+00  0.20785555D+00  0.00000000D+00  0.00000000D+00  0.30025958D+00
  0.00000000D+00  0.00000000D+00  0.35057215D+00  0.00000000D+00  0.00000000D+00
  0.53358339D+00  0.00000000D+00  0.00000000D+00  0.59250330D+00  0.00000000D+00
  0.00000000D+00  0.75111461D+00  0.00000000D+00  0.00000000D+00  0.74475932D+00
  0.00000000D+00  0.00000000D+00  0.76005502D+00  0.00000000D+00  0.00000000D+00
  0.54850393D+00  0.00000000D+00  0.00000000D+00  0.35360485D+00  0.00000000D+00
  0.00000000D+00  0.16761813D+00  0.00000000D+00  0.00000000D+00  0.62661882D-01
  0.00000000D+00  0.00000000D+00  0.15336220D-01  0.00000000D+00  0.00000000D+00
  0.22255564D-02 -0.13871154D-02  0.12476589D-02 -0.27081668D-02  0.15869149D-02
 -0.41255603D-02  0.18027402D-02 -0.66396399D-02  0.19035682D-02 -0.11087348D-01
  0.15653817D-02 -0.19097324D-01  0.89771312D-03 -0.34377908D-01  0.36425650D-02
 -0.57375975D-01 -0.58077465D-02 -0.21513281D-01 -0.63854493D-02  0.42665840D-04
 -0.89125413D-04 -0.13871154D-02  0.12476589D-02 -0.27081668D-02  0.15869149D-02
 -0.41255603D-02  0.18027402D-02 -0.66396399D-02  0.19035682D-02 -0.11087348D-01
  0.15653817D-02 -0.19097324D-01  0.89771312D-03 -0.34377908D-01  0.36425650D-02
 -0.57375975D-01 -0.58077465D-02 -0.21513281D-01 -0.63854493D-02  0.42665840D-04
 -0.89125413D-04
MO    5     MO 0.0        OCC NO =    2.0000000  ORB. ENERGY =   -0.509296
  0.00000000D+00  0.00000000D+00  0.00000000D+00  0.00000000D+00  0.00000000D+00
  0.00000000D+00  0.00000000D+00  0.00000000D+00  0.00000000D+00  0.00000000D+00
  0.00000000D+00  0.00000000D+00  0.00000000D+00  0.00000000D+00  0.00000000D+00
  0.00000000D+00  0.00000000D+00  0.00000000D+00  0.00000000D+00  0.00000000D+00
  0.00000000D+00  0.00000000D+00  0.00000000D+00  0.25314783D+00  0.00000000D+00
  0.00000000D+00  0.71502505D-01  0.00000000D+00  0.00000000D+00  0.27428611D+00
  0.00000000D+00  0.00000000D+00  0.29588377D+00  0.00000000D+00  0.00000000D+00
  0.43538781D+00  0.00000000D+00  0.00000000D+00  0.56281175D+00  0.00000000D+00
  0.00000000D+00  0.70236330D+00  0.00000000D+00  0.00000000D+00  0.81413812D+00
  0.00000000D+00  0.00000000D+00  0.86935159D+00  0.00000000D+00  0.00000000D+00
  0.83233237D+00  0.00000000D+00  0.00000000D+00  0.64646977D+00  0.00000000D+00
  0.00000000D+00  0.38493346D+00  0.00000000D+00  0.00000000D+00  0.19339234D+00
  0.00000000D+00  0.00000000D+00  0.76844650D-01  0.00000000D+00  0.00000000D+00
  0.19750798D-01  0.00000000D+00  0.00000000D+00  0.28500058D-02  0.00000000D+00
  0.00000000D+00  0.00000000D+00  0.00000000D+00  0.00000000D+00  0.00000000D+00
  0.00000000D+00  0.00000000D+00  0.00000000D+00  0.00000000D+00  0.00000000D+00
  0.00000000D+00  0.00000000D+00  0.00000000D+00  0.00000000D+00  0.00000000D+00
  0.00000000D+00  0.00000000D+00  0.00000000D+00  0.00000000D+00  0.00000000D+00
  0.00000000D+00  0.00000000D+00  0.00000000D+00  0.00000000D+00  0.00000000D+00
  0.00000000D+00  0.00000000D+00  0.00000000D+00  0.00000000D+00  0.00000000D+00
  0.00000000D+00  0.00000000D+00  0.00000000D+00  0.00000000D+00  0.00000000D+00
  0.00000000D+00  0.00000000D+00  0.00000000D+00  0.00000000D+00  0.00000000D+00
  0.00000000D+00
END DATA
 TOTAL ENERGY =      -76.027945523537 THE VIRIAL(-V/T)=   1.99999854
