 TITLE
GAUSSIAN              1 MOL ORBITALS     21 PRIMITIVES        1 NUCLEI
  He   1    (CENTRE  1)   0.00000000  0.00000000  0.00000000  CHARGE =  2.0
CENTRE ASSIGNMENTS    1  1  1  1  1  1  1  1  1  1  1  1  1  1  1  1  1  1  1  1
CENTRE ASSIGNMENTS    1
TYPE ASSIGNMENTS      1  1  1  1  1  1  1  1  1  1  1  1  1  1  1  1  1  1  1  1
TYPE ASSIGNMENTS      1
EXPONENTS  0.5268047D+05 0.2690319D+05 0.1373909D+05 0.7016361D+04 0.3583159D+04
EXPONENTS  0.1829870D+04 0.9344891D+03 0.4772307D+03 0.2437151D+03 0.1244619D+03
EXPONENTS  0.6356100D+02 0.3245972D+02 0.1657673D+02 0.8465508D+01 0.4323218D+01
EXPONENTS  0.2207808D+01 0.1127497D+01 0.5757971D+00 0.2940516D+00 0.1501681D+00
EXPONENTS  0.7668877D-01
MO    1     MO 0.0        OCC NO =    2.0000000  ORB. ENERGY =   -0.917956
  0.80901900D-02 -0.37635296D-02  0.98438525D-02  0.23333461D-02  0.10830066D-01
  0.10462398D-01  0.17450687D-01  0.22711917D-01  0.32703904D-01  0.44939667D-01
  0.62664705D-01  0.85767235D-01  0.11561297D+00  0.14940422D+00  0.17978057D+00
  0.19237372D+00  0.17659696D+00  0.13181983D+00  0.69161761D-01  0.17669002D-01
  0.11190522D-02
END DATA
 TOTAL ENERGY =       -2.861679925246 THE VIRIAL(-V/T)=   2.00000007
