 TITLE
GAUSSIAN              3 MOL ORBITALS    140 PRIMITIVES        2 NUCLEI
  Li   1    (CENTRE  1)   0.00000000  0.00000000  2.63668762  CHARGE =  3.0
  Li   2    (CENTRE  2)   0.00000000  0.00000000 -2.63668762  CHARGE =  3.0
CENTRE ASSIGNMENTS    1  1  1  1  1  1  1  1  1  1  1  1  1  1  1  1  1  1  1  1
CENTRE ASSIGNMENTS    1  1  1  1  1  1  1  1  1  1  1  1  1  1  1  1  1  1  1  1
CENTRE ASSIGNMENTS    1  1  1  1  1  1  1  1  1  1  1  1  1  1  1  1  1  1  1  1
CENTRE ASSIGNMENTS    1  1  1  1  1  1  1  1  1  1  2  2  2  2  2  2  2  2  2  2
CENTRE ASSIGNMENTS    2  2  2  2  2  2  2  2  2  2  2  2  2  2  2  2  2  2  2  2
CENTRE ASSIGNMENTS    2  2  2  2  2  2  2  2  2  2  2  2  2  2  2  2  2  2  2  2
CENTRE ASSIGNMENTS    2  2  2  2  2  2  2  2  2  2  2  2  2  2  2  2  2  2  2  2
TYPE ASSIGNMENTS      1  1  1  1  1  1  1  1  1  1  1  1  1  1  1  1  1  1  1  1
TYPE ASSIGNMENTS      1  1  1  1  1  2  3  4  2  3  4  2  3  4  2  3  4  2  3  4
TYPE ASSIGNMENTS      2  3  4  2  3  4  2  3  4  2  3  4  2  3  4  2  3  4  2  3
TYPE ASSIGNMENTS      4  2  3  4  2  3  4  2  3  4  1  1  1  1  1  1  1  1  1  1
TYPE ASSIGNMENTS      1  1  1  1  1  1  1  1  1  1  1  1  1  1  1  2  3  4  2  3
TYPE ASSIGNMENTS      4  2  3  4  2  3  4  2  3  4  2  3  4  2  3  4  2  3  4  2
TYPE ASSIGNMENTS      3  4  2  3  4  2  3  4  2  3  4  2  3  4  2  3  4  2  3  4
EXPONENTS  0.2019954D+06 0.1031562D+06 0.5268047D+05 0.2690319D+05 0.1373909D+05
EXPONENTS  0.7016361D+04 0.3583159D+04 0.1829870D+04 0.9344891D+03 0.4772307D+03
EXPONENTS  0.2437151D+03 0.1244619D+03 0.6356100D+02 0.3245972D+02 0.1657673D+02
EXPONENTS  0.8465508D+01 0.4323218D+01 0.2207808D+01 0.1127497D+01 0.5757971D+00
EXPONENTS  0.2940516D+00 0.1501681D+00 0.7668877D-01 0.3916390D-01 0.2000046D-01
EXPONENTS  0.2437151D+03 0.2437151D+03 0.2437151D+03 0.1244619D+03 0.1244619D+03
EXPONENTS  0.1244619D+03 0.6356100D+02 0.6356100D+02 0.6356100D+02 0.3245972D+02
EXPONENTS  0.3245972D+02 0.3245972D+02 0.1657673D+02 0.1657673D+02 0.1657673D+02
EXPONENTS  0.8465508D+01 0.8465508D+01 0.8465508D+01 0.4323218D+01 0.4323218D+01
EXPONENTS  0.4323218D+01 0.2207808D+01 0.2207808D+01 0.2207808D+01 0.1127497D+01
EXPONENTS  0.1127497D+01 0.1127497D+01 0.5757971D+00 0.5757971D+00 0.5757971D+00
EXPONENTS  0.2940516D+00 0.2940516D+00 0.2940516D+00 0.1501681D+00 0.1501681D+00
EXPONENTS  0.1501681D+00 0.7668877D-01 0.7668877D-01 0.7668877D-01 0.3916390D-01
EXPONENTS  0.3916390D-01 0.3916390D-01 0.2000046D-01 0.2000046D-01 0.2000046D-01
EXPONENTS  0.2019954D+06 0.1031562D+06 0.5268047D+05 0.2690319D+05 0.1373909D+05
EXPONENTS  0.7016361D+04 0.3583159D+04 0.1829870D+04 0.9344891D+03 0.4772307D+03
EXPONENTS  0.2437151D+03 0.1244619D+03 0.6356100D+02 0.3245972D+02 0.1657673D+02
EXPONENTS  0.8465508D+01 0.4323218D+01 0.2207808D+01 0.1127497D+01 0.5757971D+00
EXPONENTS  0.2940516D+00 0.1501681D+00 0.7668877D-01 0.3916390D-01 0.2000046D-01
EXPONENTS  0.2437151D+03 0.2437151D+03 0.2437151D+03 0.1244619D+03 0.1244619D+03
EXPONENTS  0.1244619D+03 0.6356100D+02 0.6356100D+02 0.6356100D+02 0.3245972D+02
EXPONENTS  0.3245972D+02 0.3245972D+02 0.1657673D+02 0.1657673D+02 0.1657673D+02
EXPONENTS  0.8465508D+01 0.8465508D+01 0.8465508D+01 0.4323218D+01 0.4323218D+01
EXPONENTS  0.4323218D+01 0.2207808D+01 0.2207808D+01 0.2207808D+01 0.1127497D+01
EXPONENTS  0.1127497D+01 0.1127497D+01 0.5757971D+00 0.5757971D+00 0.5757971D+00
EXPONENTS  0.2940516D+00 0.2940516D+00 0.2940516D+00 0.1501681D+00 0.1501681D+00
EXPONENTS  0.1501681D+00 0.7668877D-01 0.7668877D-01 0.7668877D-01 0.3916390D-01
EXPONENTS  0.3916390D-01 0.3916390D-01 0.2000046D-01 0.2000046D-01 0.2000046D-01
MO    1     MO 0.0        OCC NO =    2.0000000  ORB. ENERGY =   -2.455543
  0.85361825D-02 -0.39701451D-02  0.10383534D-01  0.24668280D-02  0.11420853D-01
  0.11050768D-01  0.18409937D-01  0.24003353D-01  0.34561816D-01  0.47641592D-01
  0.66660748D-01  0.92112012D-01  0.12633715D+00  0.16941659D+00  0.21793003D+00
  0.25960826D+00  0.27397047D+00  0.24289867D+00  0.16130037D+00  0.60733599D-01
  0.75281033D-02  0.32489910D-03 -0.56013074D-04  0.13866027D-04 -0.11225459D-05
  0.00000000D+00  0.00000000D+00  0.31885033D-03  0.00000000D+00  0.00000000D+00
  0.39682503D-04  0.00000000D+00  0.00000000D+00  0.38003986D-03  0.00000000D+00
  0.00000000D+00  0.29205089D-03  0.00000000D+00  0.00000000D+00  0.57314495D-03
  0.00000000D+00  0.00000000D+00  0.61442240D-03  0.00000000D+00  0.00000000D+00
  0.94568232D-03  0.00000000D+00  0.00000000D+00  0.12555501D-02  0.00000000D+00
  0.00000000D+00  0.17839547D-02  0.00000000D+00  0.00000000D+00  0.10333897D-02
  0.00000000D+00  0.00000000D+00  0.18682227D-03  0.00000000D+00  0.00000000D+00
 -0.11604333D-03  0.00000000D+00  0.00000000D+00  0.30142750D-04  0.00000000D+00
  0.00000000D+00 -0.75080266D-05  0.00000000D+00  0.00000000D+00  0.10108242D-05
  0.85361825D-02 -0.39701451D-02  0.10383534D-01  0.24668280D-02  0.11420853D-01
  0.11050768D-01  0.18409937D-01  0.24003353D-01  0.34561816D-01  0.47641592D-01
  0.66660748D-01  0.92112012D-01  0.12633715D+00  0.16941659D+00  0.21793003D+00
  0.25960826D+00  0.27397047D+00  0.24289867D+00  0.16130037D+00  0.60733599D-01
  0.75281033D-02  0.32489910D-03 -0.56013074D-04  0.13866027D-04 -0.11225459D-05
  0.00000000D+00  0.00000000D+00 -0.31885033D-03  0.00000000D+00  0.00000000D+00
 -0.39682503D-04  0.00000000D+00  0.00000000D+00 -0.38003986D-03  0.00000000D+00
  0.00000000D+00 -0.29205089D-03  0.00000000D+00  0.00000000D+00 -0.57314495D-03
  0.00000000D+00  0.00000000D+00 -0.61442240D-03  0.00000000D+00  0.00000000D+00
 -0.94568232D-03  0.00000000D+00  0.00000000D+00 -0.12555501D-02  0.00000000D+00
  0.00000000D+00 -0.17839547D-02  0.00000000D+00  0.00000000D+00 -0.10333897D-02
  0.00000000D+00  0.00000000D+00 -0.18682227D-03  0.00000000D+00  0.00000000D+00
  0.11604333D-03  0.00000000D+00  0.00000000D+00 -0.30142750D-04  0.00000000D+00
  0.00000000D+00  0.75080266D-05  0.00000000D+00  0.00000000D+00 -0.10108242D-05
MO    2     MO 0.0        OCC NO =    2.0000000  ORB. ENERGY =   -2.455337
  0.85396070D-02 -0.39743810D-02  0.10392177D-01  0.24591010D-02  0.11435382D-01
  0.11039440D-01  0.18433273D-01  0.23987680D-01  0.34599360D-01  0.47620923D-01
  0.66721712D-01  0.92086496D-01  0.12643663D+00  0.16938723D+00  0.21808839D+00
  0.25956801D+00  0.27419582D+00  0.24280202D+00  0.16158001D+00  0.60494500D-01
  0.78533616D-02  0.69876644D-04  0.19838049D-05 -0.62928451D-05 -0.93406352D-07
  0.00000000D+00  0.00000000D+00  0.31906481D-03  0.00000000D+00  0.00000000D+00
  0.50390068D-04  0.00000000D+00  0.00000000D+00  0.37323196D-03  0.00000000D+00
  0.00000000D+00  0.31044245D-03  0.00000000D+00  0.00000000D+00  0.56741181D-03
  0.00000000D+00  0.00000000D+00  0.63847577D-03  0.00000000D+00  0.00000000D+00
  0.93808968D-03  0.00000000D+00  0.00000000D+00  0.12908640D-02  0.00000000D+00
  0.00000000D+00  0.17450718D-02  0.00000000D+00  0.00000000D+00  0.11215941D-02
  0.00000000D+00  0.00000000D+00  0.57119868D-04  0.00000000D+00  0.00000000D+00
  0.22927353D-04  0.00000000D+00  0.00000000D+00 -0.95248428D-05  0.00000000D+00
  0.00000000D+00  0.19292785D-05  0.00000000D+00  0.00000000D+00 -0.17407492D-06
 -0.85396070D-02  0.39743810D-02 -0.10392177D-01 -0.24591010D-02 -0.11435382D-01
 -0.11039440D-01 -0.18433273D-01 -0.23987680D-01 -0.34599360D-01 -0.47620923D-01
 -0.66721712D-01 -0.92086496D-01 -0.12643663D+00 -0.16938723D+00 -0.21808839D+00
 -0.25956801D+00 -0.27419582D+00 -0.24280202D+00 -0.16158001D+00 -0.60494500D-01
 -0.78533616D-02 -0.69876644D-04 -0.19838049D-05  0.62928451D-05  0.93406352D-07
  0.00000000D+00  0.00000000D+00  0.31906481D-03  0.00000000D+00  0.00000000D+00
  0.50390068D-04  0.00000000D+00  0.00000000D+00  0.37323196D-03  0.00000000D+00
  0.00000000D+00  0.31044245D-03  0.00000000D+00  0.00000000D+00  0.56741181D-03
  0.00000000D+00  0.00000000D+00  0.63847577D-03  0.00000000D+00  0.00000000D+00
  0.93808968D-03  0.00000000D+00  0.00000000D+00  0.12908640D-02  0.00000000D+00
  0.00000000D+00  0.17450718D-02  0.00000000D+00  0.00000000D+00  0.11215941D-02
  0.00000000D+00  0.00000000D+00  0.57119868D-04  0.00000000D+00  0.00000000D+00
  0.22927353D-04  0.00000000D+00  0.00000000D+00 -0.95248428D-05  0.00000000D+00
  0.00000000D+00  0.19292785D-05  0.00000000D+00  0.00000000D+00 -0.17407492D-06
MO    3     MO 0.0        OCC NO =    2.0000000  ORB. ENERGY =   -0.179696
 -0.13626570D-02  0.65916729D-03 -0.17005896D-02 -0.31003184D-03 -0.19188044D-02
 -0.16127319D-02 -0.30925515D-02 -0.35896329D-02 -0.57479682D-02 -0.72310190D-02
 -0.10993735D-01 -0.14164622D-01 -0.20805821D-01 -0.26534712D-01 -0.36545287D-01
 -0.42392642D-01 -0.49549809D-01 -0.45281993D-01 -0.42729655D-01 -0.26499748D-01
 -0.13995221D-01  0.10279078D-01  0.20589982D-01  0.14370153D-01  0.46474475D-02
  0.00000000D+00  0.00000000D+00 -0.63506768D-03  0.00000000D+00  0.00000000D+00
 -0.40232616D-02  0.00000000D+00  0.00000000D+00  0.17545301D-02  0.00000000D+00
  0.00000000D+00 -0.70862817D-02  0.00000000D+00  0.00000000D+00  0.42367902D-03
  0.00000000D+00  0.00000000D+00 -0.87923590D-02  0.00000000D+00  0.00000000D+00
 -0.18782341D-02  0.00000000D+00  0.00000000D+00 -0.91959096D-02  0.00000000D+00
  0.00000000D+00 -0.20977099D-02  0.00000000D+00  0.00000000D+00 -0.81108282D-02
  0.00000000D+00  0.00000000D+00 -0.16641204D-02  0.00000000D+00  0.00000000D+00
 -0.64413276D-02  0.00000000D+00  0.00000000D+00 -0.14662535D-02  0.00000000D+00
  0.00000000D+00 -0.86642019D-03  0.00000000D+00  0.00000000D+00 -0.91775022D-04
 -0.13626570D-02  0.65916729D-03 -0.17005896D-02 -0.31003184D-03 -0.19188044D-02
 -0.16127319D-02 -0.30925515D-02 -0.35896329D-02 -0.57479682D-02 -0.72310190D-02
 -0.10993735D-01 -0.14164622D-01 -0.20805821D-01 -0.26534712D-01 -0.36545287D-01
 -0.42392642D-01 -0.49549809D-01 -0.45281993D-01 -0.42729655D-01 -0.26499748D-01
 -0.13995221D-01  0.10279078D-01  0.20589982D-01  0.14370153D-01  0.46474475D-02
  0.00000000D+00  0.00000000D+00  0.63506768D-03  0.00000000D+00  0.00000000D+00
  0.40232616D-02  0.00000000D+00  0.00000000D+00 -0.17545301D-02  0.00000000D+00
  0.00000000D+00  0.70862817D-02  0.00000000D+00  0.00000000D+00 -0.42367902D-03
  0.00000000D+00  0.00000000D+00  0.87923590D-02  0.00000000D+00  0.00000000D+00
  0.18782341D-02  0.00000000D+00  0.00000000D+00  0.91959096D-02  0.00000000D+00
  0.00000000D+00  0.20977099D-02  0.00000000D+00  0.00000000D+00  0.81108282D-02
  0.00000000D+00  0.00000000D+00  0.16641204D-02  0.00000000D+00  0.00000000D+00
  0.64413276D-02  0.00000000D+00  0.00000000D+00  0.14662535D-02  0.00000000D+00
  0.00000000D+00  0.86642019D-03  0.00000000D+00  0.00000000D+00  0.91775022D-04
END DATA
 TOTAL ENERGY =      -14.871818733656 THE VIRIAL(-V/T)=   2.00007055
