 TITLE
GAUSSIAN             28 MOL ORBITALS     40 PRIMITIVES        2 NUCLEI
  Li   1    (CENTRE  1)   0.00000000  0.00000000  2.63668737  CHARGE =  3.0
  Li   2    (CENTRE  2)   0.00000000  0.00000000 -2.63668737  CHARGE =  3.0
CENTRE ASSIGNMENTS    1  1  1  1  1  1  1  1  1  1  1  1  1  1  1  1  1  1  1  1
CENTRE ASSIGNMENTS    2  2  2  2  2  2  2  2  2  2  2  2  2  2  2  2  2  2  2  2
TYPE ASSIGNMENTS      1  1  1  1  1  1  1  1  1  1  1  2  3  4  2  3  4  2  3  4
TYPE ASSIGNMENTS      1  1  1  1  1  1  1  1  1  1  1  2  3  4  2  3  4  2  3  4
EXPONENTS  0.6269263D+04 0.9403161D+03 0.2142211D+03 0.6075984D+02 0.1991515D+02
EXPONENTS  0.7317151D+01 0.2972467D+01 0.1263985D+01 0.5142749D+00 0.7703089D-01
EXPONENTS  0.2893890D-01 0.4000000D+00 0.4000000D+00 0.4000000D+00 0.6000000D-01
EXPONENTS  0.6000000D-01 0.6000000D-01 0.3327000D+01 0.3327000D+01 0.3327000D+01
EXPONENTS  0.6269263D+04 0.9403161D+03 0.2142211D+03 0.6075984D+02 0.1991515D+02
EXPONENTS  0.7317151D+01 0.2972467D+01 0.1263985D+01 0.5142749D+00 0.7703089D-01
EXPONENTS  0.2893890D-01 0.4000000D+00 0.4000000D+00 0.4000000D+00 0.6000000D-01
EXPONENTS  0.6000000D-01 0.6000000D-01 0.3327000D+01 0.3327000D+01 0.3327000D+01
MO    1     MO 0.0        OCC NO =    2.0000113  ORB. ENERGY =    0.000000
  0.44556539D-01  0.83211362D-01  0.14286349D+00  0.22684598D+00  0.32226643D+00
  0.37598219D+00  0.33804648D+00  0.23018051D+00  0.67155309D-01  0.16812142D-03
 -0.30549861D-03  0.71791334D-18  0.11180409D-17  0.11500804D-02  0.97518266D-18
 -0.29300678D-19  0.30701340D-04 -0.23142651D-15 -0.61170937D-15  0.47788377D-02
  0.44556539D-01  0.83211362D-01  0.14286349D+00  0.22684598D+00  0.32226643D+00
  0.37598219D+00  0.33804648D+00  0.23018051D+00  0.67155309D-01  0.16812142D-03
 -0.30549861D-03  0.43117936D-18  0.27664099D-18 -0.11500804D-02  0.12337347D-17
  0.21888489D-18 -0.30701340D-04 -0.23238028D-15 -0.60955240D-15 -0.47788377D-02
MO    2     MO 0.0        OCC NO =    2.0000005  ORB. ENERGY =    0.000000
  0.44471962D-01  0.83053411D-01  0.14259231D+00  0.22641538D+00  0.32165470D+00
  0.37526850D+00  0.33714994D+00  0.22957004D+00  0.66701723D-01  0.65166946D-03
 -0.69315689D-04  0.58610239D-17 -0.53563826D-16  0.94096490D-03  0.11072888D-17
  0.24042099D-17 -0.60439770D-04 -0.19338462D-15  0.97157325D-16  0.45587796D-02
 -0.44471962D-01 -0.83053411D-01 -0.14259231D+00 -0.22641538D+00 -0.32165470D+00
 -0.37526850D+00 -0.33714993D+00 -0.22957004D+00 -0.66701723D-01 -0.65166946D-03
  0.69315689D-04  0.72427924D-17 -0.52732305D-16  0.94096490D-03  0.85543756D-18
  0.21421485D-17 -0.60439770D-04 -0.19889262D-15  0.94739883D-16  0.45587796D-02
MO    3     MO 0.0        OCC NO =    1.9446558  ORB. ENERGY =    0.000000
 -0.66003817D-02 -0.12326513D-01 -0.21163079D-01 -0.33603823D-01 -0.47738928D-01
 -0.55696111D-01 -0.65566022D-01 -0.44644808D-01 -0.38686245D-01  0.30109466D-01
  0.15141261D-01  0.21340901D-17  0.43967375D-16 -0.14218102D-01  0.16774633D-17
 -0.28457195D-17 -0.33622021D-02  0.22803008D-16 -0.30531992D-15 -0.15521478D-01
 -0.66003817D-02 -0.12326513D-01 -0.21163079D-01 -0.33603823D-01 -0.47738928D-01
 -0.55696111D-01 -0.65566022D-01 -0.44644808D-01 -0.38686245D-01  0.30109466D-01
  0.15141261D-01  0.10509680D-17  0.42884385D-16  0.14218102D-01  0.26296789D-17
 -0.18934641D-17  0.33622021D-02  0.27573199D-16 -0.30054819D-15  0.15521478D-01
MO    4     MO 0.0        OCC NO =    0.0149008  ORB. ENERGY =    0.000000
 -0.93858582D-02 -0.17528517D-01 -0.30094269D-01 -0.47785223D-01 -0.67885591D-01
 -0.79200844D-01 -0.95120767D-01 -0.64769041D-01 -0.54471833D-01  0.95518651D-01
  0.17341662D-01 -0.86130129D-16  0.18894489D-15 -0.19363813D-01  0.62268432D-17
 -0.11223829D-14 -0.77190638D-02  0.55774210D-14  0.90660019D-14 -0.76423982D-02
  0.93858582D-02  0.17528517D-01  0.30094269D-01  0.47785223D-01  0.67885591D-01
  0.79200844D-01  0.95120767D-01  0.64769041D-01  0.54471833D-01 -0.95518651D-01
 -0.17341662D-01 -0.13032076D-15  0.19263974D-15 -0.19363813D-01 -0.23175843D-16
 -0.11242726D-14 -0.77190638D-02  0.55539721D-14  0.90527101D-14 -0.76423982D-02
MO    5     MO 0.0        OCC NO =    0.0142163  ORB. ENERGY =    0.000000
 -0.25425206D-15 -0.47482728D-15 -0.81521900D-15 -0.12944465D-14 -0.18389423D-14
 -0.21454594D-14 -0.46165805D-14 -0.31434933D-14 -0.23047942D-14  0.41661440D-14
  0.93643918D-15  0.54969899D-16  0.32273820D-01 -0.11265898D-14 -0.88598675D-17
  0.23914415D-01 -0.45234323D-15 -0.14179782D-14  0.10746241D-01 -0.77513052D-14
  0.32728789D-15  0.61122502D-15  0.10493968D-14  0.16662861D-14  0.23671924D-14
  0.27617589D-14  0.48105509D-14  0.32755704D-14  0.24326407D-14 -0.46738141D-14
 -0.72955941D-15 -0.41289147D-16  0.32273820D-01 -0.13417297D-14  0.61829752D-17
  0.23914415D-01 -0.44490307D-15  0.55530076D-15  0.10746241D-01 -0.31152945D-14
MO    6     MO 0.0        OCC NO =    0.0142163  ORB. ENERGY =    0.000000
 -0.81450671D-17 -0.15211283D-16 -0.26115869D-16 -0.41468116D-16 -0.58911256D-16
 -0.68730656D-16 -0.79440444D-16 -0.54092093D-16 -0.36195254D-16  0.40090491D-16
  0.13248625D-16  0.32273820D-01  0.20258682D-26  0.51027010D-17  0.23914415D-01
 -0.35691265D-27 -0.81476180D-17  0.10746241D-01 -0.21910736D-25  0.49041603D-16
  0.49456907D-17  0.92363022D-17  0.15857575D-16  0.25179470D-16  0.35770958D-16
  0.41733305D-16  0.24140094D-16  0.16437323D-16  0.28614907D-16 -0.47611499D-16
 -0.14854212D-16  0.32273820D-01  0.20258696D-26 -0.77859441D-17  0.23914415D-01
 -0.35691349D-27 -0.90328452D-17  0.10746241D-01 -0.21910741D-25  0.13043258D-16
MO    7     MO 0.0        OCC NO =    0.0080892  ORB. ENERGY =    0.000000
  0.37859140D-02  0.70703665D-02  0.12138934D-01  0.19274822D-01  0.27382580D-01
  0.31946742D-01  0.44292807D-01  0.30159583D-01  0.18183026D-01 -0.66353335D-01
  0.36694242D-01  0.64312918D-17 -0.18789277D-14  0.71887113D-01 -0.88252262D-17
  0.30993417D-16  0.15704037D-01 -0.67045002D-15  0.19563607D-13 -0.46984548D-02
  0.37859140D-02  0.70703665D-02  0.12138934D-01  0.19274822D-01  0.27382580D-01
  0.31946742D-01  0.44292807D-01  0.30159583D-01  0.18183026D-01 -0.66353335D-01
  0.36694242D-01  0.60228074D-16 -0.18806284D-14 -0.71887113D-01  0.41216090D-17
  0.29371423D-16 -0.15704037D-01 -0.22415322D-16  0.19559874D-13  0.46984548D-02
MO    8     MO 0.0        OCC NO =    0.0014074  ORB. ENERGY =    0.000000
  0.12901857D-15  0.24094804D-15  0.41367763D-15  0.65685854D-15  0.93315940D-15
  0.10886996D-14 -0.63927470D-15 -0.43529095D-15  0.16409883D-15  0.21019539D-15
  0.43847617D-15 -0.71286869D-01 -0.16935783D-09  0.46351750D-16 -0.35603860D-01
 -0.84584678D-10 -0.35554301D-15  0.15136842D-01  0.35958761D-10 -0.16924533D-14
 -0.66391728D-16 -0.12398957D-15 -0.21287457D-15 -0.33801316D-15 -0.48019495D-15
 -0.56023443D-15  0.36965250D-15  0.25170148D-15 -0.94325167D-17 -0.26904063D-15
 -0.42205883D-15  0.71286869D-01  0.16935701D-09  0.16797583D-15  0.35603860D-01
  0.84584705D-10 -0.35054574D-15 -0.15136842D-01 -0.35962943D-10 -0.24416054D-14
MO    9     MO 0.0        OCC NO =    0.0014074  ORB. ENERGY =    0.000000
  0.81293972D-16  0.15182019D-15  0.26065626D-15  0.41388337D-15  0.58797920D-15
  0.68598429D-15 -0.38165222D-15 -0.25987225D-15  0.20141897D-15 -0.53580150D-16
  0.15083118D-16  0.16935735D-09 -0.71286869D-01 -0.39636132D-16  0.84584697D-10
 -0.35603860D-01  0.85081332D-17 -0.35960861D-10  0.15136842D-01 -0.15145436D-15
  0.25095013D-16  0.46866078D-16  0.80463189D-16  0.12776358D-15  0.18150602D-15
  0.21175967D-15 -0.36899591D-17 -0.25125440D-17 -0.74368813D-16  0.42746530D-16
 -0.12245394D-16 -0.16935734D-09  0.71286869D-01 -0.66998533D-16 -0.84584697D-10
  0.35603860D-01  0.80631318D-17  0.35960433D-10 -0.15136842D-01  0.84277970D-15
MO   10     MO 0.0        OCC NO =    0.0005723  ORB. ENERGY =    0.000000
  0.65883098D-02  0.12303968D-01  0.21124373D-01  0.33542362D-01  0.47651615D-01
  0.55594245D-01  0.12794182D+00  0.87117346D-01 -0.34471129D-01 -0.11349404D+00
  0.57086621D-02  0.12642905D-15  0.42697739D-13  0.13358182D+00 -0.97826278D-16
 -0.16442664D-14  0.48311040D-01  0.73108274D-16  0.33588427D-12 -0.20431948D-01
 -0.65883098D-02 -0.12303968D-01 -0.21124373D-01 -0.33542362D-01 -0.47651615D-01
 -0.55594245D-01 -0.12794182D+00 -0.87117346D-01  0.34471129D-01  0.11349404D+00
 -0.57086621D-02 -0.63856262D-16  0.42680163D-13  0.13358182D+00  0.97076884D-16
 -0.16460456D-14  0.48311040D-01 -0.44795597D-15  0.33592373D-12 -0.20431948D-01
MO   11     MO 0.0        OCC NO =    0.0002314  ORB. ENERGY =    0.000000
 -0.90528468D-02 -0.16906603D-01 -0.29026521D-01 -0.46089798D-01 -0.65477002D-01
 -0.76390789D-01 -0.21340562D+00 -0.14531083D+00  0.11314283D+00  0.10042474D+00
 -0.33066622D-01 -0.33109868D-15  0.28628983D-13 -0.11221555D+00  0.13584129D-16
 -0.11136897D-14  0.26007519D-01  0.61549249D-14  0.24867433D-12 -0.14573395D+00
 -0.90528468D-02 -0.16906603D-01 -0.29026521D-01 -0.46089798D-01 -0.65477002D-01
 -0.76390789D-01 -0.21340562D+00 -0.14531083D+00  0.11314283D+00  0.10042474D+00
 -0.33066622D-01  0.17287916D-15  0.28588897D-13  0.11221555D+00 -0.73704934D-17
 -0.11150072D-14 -0.26007519D-01 -0.60008603D-14  0.24882913D-12  0.14573395D+00
MO   12     MO 0.0        OCC NO =    0.0000660  ORB. ENERGY =    0.000000
  0.87415338D-02  0.16325212D-01  0.28028345D-01  0.44504843D-01  0.63225352D-01
  0.73763831D-01  0.23836049D+00  0.16230294D+00 -0.19340330D+00  0.29331074D-02
  0.14132505D+00 -0.32170579D-15 -0.18376518D-11  0.45388023D-01  0.12033489D-15
  0.71294316D-13 -0.77190342D-01  0.77400913D-14 -0.10340291D-10  0.36167010D-01
 -0.87415338D-02 -0.16325212D-01 -0.28028345D-01 -0.44504843D-01 -0.63225352D-01
 -0.73763831D-01 -0.23836049D+00 -0.16230294D+00  0.19340330D+00 -0.29331074D-02
 -0.14132505D+00  0.29786927D-15 -0.18380708D-11  0.45388023D-01 -0.12175029D-15
  0.71318485D-13 -0.77190342D-01 -0.77506098D-14 -0.10338742D-10  0.36167010D-01
MO   13     MO 0.0        OCC NO =    0.0000401  ORB. ENERGY =    0.000000
  0.22620958D-16  0.42245667D-16  0.72530522D-16  0.11516768D-15  0.16361179D-15
  0.19088281D-15  0.27569353D-14  0.18772353D-14 -0.32478311D-14  0.15603063D-14
 -0.29863663D-15  0.35109529D+00  0.14364433D-10  0.29067296D-14 -0.12785969D-01
 -0.52311514D-12 -0.39988098D-15 -0.28611813D+00 -0.11706078D-10 -0.23238731D-14
 -0.54377690D-16 -0.10155281D-15 -0.17435346D-15 -0.27684736D-15 -0.39330038D-15
 -0.45885617D-15 -0.28019908D-14 -0.19079142D-14  0.33560693D-14 -0.15494590D-14
  0.29079951D-15  0.35109529D+00  0.14364433D-10  0.31380097D-14 -0.12785969D-01
 -0.52311514D-12 -0.40701154D-15 -0.28611813D+00 -0.11706078D-10 -0.20037055D-14
MO   14     MO 0.0        OCC NO =    0.0000401  ORB. ENERGY =    0.000000
  0.12427780D-12  0.23209444D-12  0.39847710D-12  0.63272238D-12  0.89887060D-12
  0.10486954D-11  0.22818135D-10  0.15537183D-10 -0.26113342D-10  0.11447203D-10
 -0.14477561D-11 -0.14374546D-10  0.35109529D+00  0.22020825D-10  0.52377963D-12
 -0.12785969D-01 -0.33117639D-11  0.11706003D-10 -0.28611813D+00 -0.91479941D-11
 -0.34403323D-12 -0.64249770D-12 -0.11030881D-11 -0.17515399D-11 -0.24883073D-11
 -0.29030614D-11 -0.21972996D-10 -0.14961716D-10  0.25596955D-10 -0.11261269D-10
  0.13797641D-11 -0.14354333D-10  0.35109529D+00  0.21033546D-10  0.52245075D-12
 -0.12785969D-01 -0.32776266D-11  0.11706045D-10 -0.28611813D+00 -0.11879326D-10
MO   15     MO 0.0        OCC NO =    0.0000399  ORB. ENERGY =    0.000000
  0.30688659D-02  0.57312465D-02  0.98398329D-02  0.15624191D-01  0.22196348D-01
  0.25896062D-01  0.24354481D+00  0.16583302D+00 -0.29159348D+00  0.13659127D+00
 -0.26143976D-01 -0.12407418D-13 -0.28809656D-10  0.26450103D+00  0.72949584D-15
  0.10476515D-11 -0.35115720D-01  0.32055038D-13  0.27428313D-10 -0.19296807D+00
 -0.30688659D-02 -0.57312465D-02 -0.98398329D-02 -0.15624191D-01 -0.22196348D-01
 -0.25896062D-01 -0.24354481D+00 -0.16583302D+00  0.29159348D+00 -0.13659127D+00
  0.26143976D-01  0.43915173D-14 -0.28814327D-10  0.26450103D+00 -0.43770423D-15
  0.10479794D-11 -0.35115720D-01 -0.25422911D-13  0.27435911D-10 -0.19296807D+00
MO   16     MO 0.0        OCC NO =    0.0000318  ORB. ENERGY =    0.000000
 -0.64509927D-03 -0.12047522D-02 -0.20684087D-02 -0.32843254D-02 -0.46658434D-02
 -0.54435519D-02  0.13222340D+00  0.90032734D-01 -0.18578267D+00  0.75930162D-01
 -0.26381585D-01  0.23637336D-13 -0.54333047D-12  0.33115087D+00 -0.16460907D-14
  0.19015213D-13 -0.90505672D-02 -0.47258533D-13  0.20779466D-11 -0.78746388D+00
 -0.64509927D-03 -0.12047522D-02 -0.20684087D-02 -0.32843254D-02 -0.46658434D-02
 -0.54435519D-02  0.13222340D+00  0.90032734D-01 -0.18578267D+00  0.75930162D-01
 -0.26381585D-01 -0.23549018D-13 -0.55369145D-12 -0.33115087D+00  0.16405766D-14
  0.19744299D-13  0.90505672D-02  0.47523216D-13  0.20858339D-11  0.78746388D+00
MO   17     MO 0.0        OCC NO =    0.0000299  ORB. ENERGY =    0.000000
 -0.11043860D-15 -0.20624911D-15 -0.35410391D-15 -0.56226435D-15 -0.79877511D-15
 -0.93191593D-15  0.59369117D-14  0.40425250D-14 -0.65861352D-14  0.23306015D-14
 -0.63681642D-15 -0.20610144D-03 -0.34653072D+00  0.61298388D-14  0.14460859D-04
  0.24313910D-01 -0.35462819D-15  0.18258669D-03  0.30699396D+00 -0.67554993D-14
 -0.31662881D-15 -0.59131870D-15 -0.10152202D-14 -0.16120187D-14 -0.22900979D-14
 -0.26718142D-14  0.14634118D-15  0.99645728D-16 -0.90207460D-16  0.11938403D-15
 -0.19427795D-15  0.20610144D-03  0.34653072D+00 -0.35353094D-14 -0.14460859D-04
 -0.24313910D-01 -0.10172409D-15 -0.18258669D-03 -0.30699396D+00  0.95055550D-14
MO   18     MO 0.0        OCC NO =    0.0000299  ORB. ENERGY =    0.000000
  0.95359102D-15  0.17808746D-14  0.30575387D-14  0.48549167D-14  0.68970880D-14
  0.80467031D-14 -0.33024725D-14 -0.22486991D-14 -0.18371570D-14  0.13006881D-14
 -0.82203629D-15 -0.34653072D+00  0.20610144D-03  0.17049762D-13  0.24313910D-01
 -0.14460859D-04  0.16902691D-15  0.30699396D+00 -0.18258669D-03 -0.36124956D-13
 -0.11478346D-14 -0.21436332D-14 -0.36803499D-14 -0.58438483D-14 -0.83020035D-14
 -0.96857916D-14  0.27141679D-13  0.18481144D-13 -0.28278212D-13  0.96718584D-14
 -0.28880719D-14  0.34653072D+00 -0.20610144D-03 -0.26066446D-13 -0.24313910D-01
  0.14460859D-04  0.12949142D-14 -0.30699396D+00  0.18258669D-03  0.54127834D-13
MO   19     MO 0.0        OCC NO =    0.0000088  ORB. ENERGY =    0.000000
  0.30228049D-01  0.56452255D-01  0.96921455D-01  0.15389686D+00  0.21863200D+00
  0.25507385D+00  0.54417414D+00  0.37053567D+00 -0.54917432D+00  0.95334182D-01
 -0.21826184D-01  0.53863378D-15 -0.29032750D-12 -0.99980131D-01 -0.79153688D-16
  0.29254347D-14  0.10357339D-01  0.48100172D-13  0.20865927D-10 -0.18164007D+00
  0.30228049D-01  0.56452255D-01  0.96921455D-01  0.15389686D+00  0.21863200D+00
  0.25507385D+00  0.54417414D+00  0.37053567D+00 -0.54917432D+00  0.95334182D-01
 -0.21826184D-01 -0.82460275D-15 -0.29060935D-12  0.99980131D-01  0.83962081D-16
  0.29437328D-14 -0.10357339D-01 -0.32975622D-13  0.20864553D-10  0.18164007D+00
MO   20     MO 0.0        OCC NO =    0.0000053  ORB. ENERGY =    0.000000
  0.32191453D-01  0.60119002D-01  0.10321680D+00  0.16389293D+00  0.23283282D+00
  0.27164168D+00  0.46926052D+00  0.31952595D+00 -0.49754848D+00  0.87513892D-01
 -0.68282744D-01  0.47956931D-14 -0.14769826D-11 -0.19260399D+00 -0.25431516D-16
  0.35641582D-13  0.26803816D-01 -0.39999372D-12  0.50077241D-10  0.44879908D+00
 -0.32191453D-01 -0.60119002D-01 -0.10321680D+00 -0.16389293D+00 -0.23283282D+00
 -0.27164168D+00 -0.46926052D+00 -0.31952595D+00  0.49754848D+00 -0.87513892D-01
  0.68282744D-01 -0.58134948D-14 -0.14786911D-11 -0.19260399D+00  0.43180258D-16
  0.35760464D-13  0.26803816D-01  0.45293393D-12  0.50086369D-10  0.44879908D+00
MO   21     MO 0.0        OCC NO =    0.0000001  ORB. ENERGY =    0.000000
 -0.17189529D-15 -0.32102227D-15 -0.55115505D-15 -0.87515224D-15 -0.12432761D-14
 -0.14505069D-14 -0.34726998D-14 -0.23646092D-14  0.37414279D-14 -0.75209989D-15
  0.39433826D-15 -0.92626817D-01  0.72292784D-12  0.12148980D-14  0.16377323D-02
 -0.12782525D-13 -0.15279269D-15  0.47599817D+01 -0.37150384D-10 -0.38745075D-16
  0.73468145D-16  0.13720510D-15  0.23556398D-15  0.37404057D-15  0.53137692D-15
  0.61994748D-15  0.18229793D-14  0.12412918D-14 -0.20355075D-14  0.45765939D-15
 -0.32527994D-15 -0.92626817D-01  0.72292863D-12  0.92516689D-15  0.16377323D-02
 -0.12781672D-13 -0.12389953D-15  0.47599817D+01 -0.37150353D-10 -0.25203774D-14
MO   22     MO 0.0        OCC NO =    0.0000001  ORB. ENERGY =    0.000000
  0.27076779D-09  0.50567115D-09  0.86817407D-09  0.13785313D-08  0.19583964D-08
  0.22848244D-08 -0.10512986D-08 -0.71584368D-09  0.40202188D-09 -0.37459040D-10
  0.54776125D-11  0.16659499D-11 -0.92626817D-01 -0.69544677D-10 -0.47346325D-13
  0.16377323D-02  0.17545897D-11 -0.87235860D-10  0.47599817D+01  0.41031762D-08
  0.24606833D-09  0.45954379D-09  0.78897916D-09  0.12527816D-08  0.17797514D-08
  0.20764025D-08 -0.87874226D-09 -0.59834771D-09  0.30250398D-09 -0.24890776D-10
  0.77064569D-11 -0.31118041D-11 -0.92626817D-01 -0.63946653D-10  0.72910436D-13
  0.16377323D-02  0.32874226D-11  0.16153659D-09  0.47599817D+01  0.34931755D-08
MO   23     MO 0.0        OCC NO =    0.0000001  ORB. ENERGY =    0.000000
 -0.73539655D-12 -0.13733865D-11 -0.23579327D-11 -0.37440464D-11 -0.53189413D-11
 -0.62055090D-11  0.27376021D-11  0.18640710D-11 -0.99043435D-12  0.80942058D-13
 -0.15648447D-13 -0.13472845D-04 -0.91307928D-01  0.34565400D-13  0.33840597D-06
  0.22934390D-02  0.27505964D-14  0.70218842D-03  0.47588591D+01 -0.18808946D-11
 -0.10071881D-11 -0.18809696D-11 -0.32293894D-11 -0.51277901D-11 -0.72847427D-11
 -0.84989726D-11  0.37468437D-11  0.25512775D-11 -0.13630320D-11  0.12420164D-12
 -0.27492259D-13  0.13472845D-04  0.91307928D-01  0.70161366D-14 -0.33840597D-06
 -0.22934390D-02 -0.18054408D-14 -0.70218842D-03 -0.47588591D+01  0.59052589D-12
MO   24     MO 0.0        OCC NO =    0.0000001  ORB. ENERGY =    0.000000
  0.23122219D-11  0.43181796D-11  0.74137737D-11  0.11771970D-10  0.16723729D-10
  0.19511261D-10 -0.88899993D-11 -0.60533230D-11  0.33701454D-11 -0.34001764D-12
  0.43773278D-13 -0.91307928D-01  0.13472842D-04 -0.56488958D-12  0.22934390D-02
 -0.33840593D-06  0.31403861D-13  0.47588591D+01 -0.70218829D-03  0.34613087D-10
  0.22809964D-12  0.42598644D-12  0.73136539D-12  0.11612995D-11  0.16497883D-11
  0.19247770D-11 -0.57098022D-12 -0.38878830D-12  0.66621527D-13  0.41021202D-13
  0.18939389D-13  0.91307928D-01 -0.13472847D-04 -0.52626083D-12 -0.22934390D-02
  0.33840601D-06  0.38195965D-13 -0.47588591D+01  0.70218854D-03  0.30734010D-10
MO   25     MO 0.0        OCC NO =    0.0000001  ORB. ENERGY =    0.000000
  0.26627549D+00  0.49728157D+00  0.85377021D+00  0.13556601D+01  0.19259047D+01
  0.22469169D+01 -0.99124940D+00 -0.67495538D+00  0.36010861D+00 -0.31577189D-01
  0.66598410D-02  0.43588873D-12  0.89742048D-10 -0.34424394D-02 -0.10936188D-13
 -0.15867262D-11 -0.73347983D-03 -0.22727183D-10 -0.46055007D-08  0.32738282D+00
  0.26627549D+00  0.49728158D+00  0.85377022D+00  0.13556601D+01  0.19259047D+01
  0.22469169D+01 -0.99124941D+00 -0.67495538D+00  0.36010861D+00 -0.31577190D-01
  0.66598411D-02 -0.43588923D-12  0.90340708D-10  0.34424396D-02  0.10936182D-13
 -0.16017870D-11  0.73347981D-03  0.22727198D-10 -0.46366726D-08 -0.32738284D+00
MO   26     MO 0.0        OCC NO =    0.0000001  ORB. ENERGY =    0.000000
 -0.24875071D+00 -0.46455327D+00 -0.79757981D+00 -0.12664381D+01 -0.17991524D+01
 -0.20990373D+01  0.95008512D+00  0.64692605D+00 -0.36201337D+00  0.42160870D-01
 -0.88832669D-02 -0.56147354D-12 -0.30841807D-10  0.13396329D-01  0.14184269D-13
  0.54607153D-12 -0.30089214D-02  0.29162296D-10  0.15837064D-08 -0.16418754D+01
  0.24875071D+00  0.46455326D+00  0.79757980D+00  0.12664381D+01  0.17991524D+01
  0.20990373D+01 -0.95008511D+00 -0.64692605D+00  0.36201336D+00 -0.42160870D-01
  0.88832669D-02  0.56142798D-12 -0.30763308D-10  0.13396329D-01 -0.14183313D-13
  0.54408215D-12 -0.30089214D-02 -0.29160329D-10  0.15796308D-08 -0.16418754D+01
MO   27     MO 0.0        OCC NO =    0.0000000  ORB. ENERGY =    0.000000
 -0.95749023D-01 -0.17881565D+00 -0.30700409D+00 -0.48747684D+00 -0.69252900D+00
 -0.80796059D+00  0.32002678D+00  0.21791065D+00 -0.10326528D+00  0.11953175D-01
 -0.70555402D-02  0.46251058D-12  0.67322170D-10 -0.87809514D-01 -0.11633940D-13
 -0.11834184D-11  0.26952412D-02 -0.24107000D-10 -0.34776045D-08  0.44558598D+01
  0.95749024D-01  0.17881565D+00  0.30700409D+00  0.48747684D+00  0.69252901D+00
  0.80796059D+00 -0.32002679D+00 -0.21791065D+00  0.10326528D+00 -0.11953175D-01
  0.70555402D-02 -0.46248171D-12  0.67377462D-10 -0.87809514D-01  0.11633475D-13
 -0.11847929D-11  0.26952412D-02  0.24105342D-10 -0.34804942D-08  0.44558598D+01
MO   28     MO 0.0        OCC NO =   -0.0000010  ORB. ENERGY =    0.000000
 -0.16931090D-01 -0.31619580D-01 -0.54286861D-01 -0.86199462D-01 -0.12245839D+00
 -0.14286990D+00  0.96244479D-01  0.65534192D-01 -0.65089879D-01  0.22892231D-01
 -0.65968580D-02  0.80266714D-14 -0.46911961D-12 -0.71492674D-01 -0.22861477D-15
  0.11908555D-13  0.34847099D-02 -0.38572171D-12  0.14436347D-10  0.46898067D+01
 -0.16931090D-01 -0.31619580D-01 -0.54286861D-01 -0.86199462D-01 -0.12245839D+00
 -0.14286990D+00  0.96244479D-01  0.65534192D-01 -0.65089879D-01  0.22892231D-01
 -0.65968580D-02 -0.79873122D-14 -0.46342246D-12  0.71492674D-01  0.22801647D-15
  0.11791804D-13 -0.34847099D-02  0.38370715D-12  0.14104093D-10 -0.46898067D+01
END DATA
 TOTAL ENERGY =      -14.885705386708 THE VIRIAL(-V/T)=   2.00065738
