 TITLE
GAUSSIAN             27 MOL ORBITALS    193 PRIMITIVES        1 NUCLEI
  Xe   1    (CENTRE  1)   0.00000000  0.00000000  0.00000000  CHARGE = 54.0
CENTRE ASSIGNMENTS    1  1  1  1  1  1  1  1  1  1  1  1  1  1  1  1  1  1  1  1
CENTRE ASSIGNMENTS    1  1  1  1  1  1  1  1  1  1  1  1  1  1  1  1  1  1  1  1
CENTRE ASSIGNMENTS    1  1  1  1  1  1  1  1  1  1  1  1  1  1  1  1  1  1  1  1
CENTRE ASSIGNMENTS    1  1  1  1  1  1  1  1  1  1  1  1  1  1  1  1  1  1  1  1
CENTRE ASSIGNMENTS    1  1  1  1  1  1  1  1  1  1  1  1  1  1  1  1  1  1  1  1
CENTRE ASSIGNMENTS    1  1  1  1  1  1  1  1  1  1  1  1  1  1  1  1  1  1  1  1
CENTRE ASSIGNMENTS    1  1  1  1  1  1  1  1  1  1  1  1  1  1  1  1  1  1  1  1
CENTRE ASSIGNMENTS    1  1  1  1  1  1  1  1  1  1  1  1  1  1  1  1  1  1  1  1
CENTRE ASSIGNMENTS    1  1  1  1  1  1  1  1  1  1  1  1  1  1  1  1  1  1  1  1
CENTRE ASSIGNMENTS    1  1  1  1  1  1  1  1  1  1  1  1  1
TYPE ASSIGNMENTS      1  1  1  1  1  1  1  1  1  1  1  1  1  1  1  1  1  1  1  1
TYPE ASSIGNMENTS      1  1  1  1  1  1  1  1  1  1  1  2  3  4  2  3  4  2  3  4
TYPE ASSIGNMENTS      2  3  4  2  3  4  2  3  4  2  3  4  2  3  4  2  3  4  2  3
TYPE ASSIGNMENTS      4  2  3  4  2  3  4  2  3  4  2  3  4  2  3  4  2  3  4  2
TYPE ASSIGNMENTS      3  4  2  3  4  2  3  4  2  3  4  2  3  4  2  3  4  5  6  7
TYPE ASSIGNMENTS      8  9 10  5  6  7  8  9 10  5  6  7  8  9 10  5  6  7  8  9
TYPE ASSIGNMENTS     10  5  6  7  8  9 10  5  6  7  8  9 10  5  6  7  8  9 10  5
TYPE ASSIGNMENTS      6  7  8  9 10  5  6  7  8  9 10  5  6  7  8  9 10  5  6  7
TYPE ASSIGNMENTS      8  9 10  5  6  7  8  9 10  5  6  7  8  9 10  5  6  7  8  9
TYPE ASSIGNMENTS     10  5  6  7  8  9 10  5  6  7  8  9 10
EXPONENTS  0.4366249D+08 0.2229783D+08 0.1138719D+08 0.5815283D+07 0.2969785D+07
EXPONENTS  0.1516628D+07 0.7745210D+06 0.3955372D+06 0.2019954D+06 0.1031562D+06
EXPONENTS  0.5268047D+05 0.2690319D+05 0.1373909D+05 0.7016361D+04 0.3583159D+04
EXPONENTS  0.1829870D+04 0.9344891D+03 0.4772307D+03 0.2437151D+03 0.1244619D+03
EXPONENTS  0.6356100D+02 0.3245972D+02 0.1657673D+02 0.8465508D+01 0.4323218D+01
EXPONENTS  0.2207808D+01 0.1127497D+01 0.5757971D+00 0.2940516D+00 0.1501681D+00
EXPONENTS  0.7668877D-01 0.1031562D+06 0.1031562D+06 0.1031562D+06 0.5268047D+05
EXPONENTS  0.5268047D+05 0.5268047D+05 0.2690319D+05 0.2690319D+05 0.2690319D+05
EXPONENTS  0.1373909D+05 0.1373909D+05 0.1373909D+05 0.7016361D+04 0.7016361D+04
EXPONENTS  0.7016361D+04 0.3583159D+04 0.3583159D+04 0.3583159D+04 0.1829870D+04
EXPONENTS  0.1829870D+04 0.1829870D+04 0.9344891D+03 0.9344891D+03 0.9344891D+03
EXPONENTS  0.4772307D+03 0.4772307D+03 0.4772307D+03 0.2437151D+03 0.2437151D+03
EXPONENTS  0.2437151D+03 0.1244619D+03 0.1244619D+03 0.1244619D+03 0.6356100D+02
EXPONENTS  0.6356100D+02 0.6356100D+02 0.3245972D+02 0.3245972D+02 0.3245972D+02
EXPONENTS  0.1657673D+02 0.1657673D+02 0.1657673D+02 0.8465508D+01 0.8465508D+01
EXPONENTS  0.8465508D+01 0.4323218D+01 0.4323218D+01 0.4323218D+01 0.2207808D+01
EXPONENTS  0.2207808D+01 0.2207808D+01 0.1127497D+01 0.1127497D+01 0.1127497D+01
EXPONENTS  0.5757971D+00 0.5757971D+00 0.5757971D+00 0.2940516D+00 0.2940516D+00
EXPONENTS  0.2940516D+00 0.1501681D+00 0.1501681D+00 0.1501681D+00 0.7668877D-01
EXPONENTS  0.7668877D-01 0.7668877D-01 0.3583159D+04 0.3583159D+04 0.3583159D+04
EXPONENTS  0.3583159D+04 0.3583159D+04 0.3583159D+04 0.1829870D+04 0.1829870D+04
EXPONENTS  0.1829870D+04 0.1829870D+04 0.1829870D+04 0.1829870D+04 0.9344891D+03
EXPONENTS  0.9344891D+03 0.9344891D+03 0.9344891D+03 0.9344891D+03 0.9344891D+03
EXPONENTS  0.4772307D+03 0.4772307D+03 0.4772307D+03 0.4772307D+03 0.4772307D+03
EXPONENTS  0.4772307D+03 0.2437151D+03 0.2437151D+03 0.2437151D+03 0.2437151D+03
EXPONENTS  0.2437151D+03 0.2437151D+03 0.1244619D+03 0.1244619D+03 0.1244619D+03
EXPONENTS  0.1244619D+03 0.1244619D+03 0.1244619D+03 0.6356100D+02 0.6356100D+02
EXPONENTS  0.6356100D+02 0.6356100D+02 0.6356100D+02 0.6356100D+02 0.3245972D+02
EXPONENTS  0.3245972D+02 0.3245972D+02 0.3245972D+02 0.3245972D+02 0.3245972D+02
EXPONENTS  0.1657673D+02 0.1657673D+02 0.1657673D+02 0.1657673D+02 0.1657673D+02
EXPONENTS  0.1657673D+02 0.8465508D+01 0.8465508D+01 0.8465508D+01 0.8465508D+01
EXPONENTS  0.8465508D+01 0.8465508D+01 0.4323218D+01 0.4323218D+01 0.4323218D+01
EXPONENTS  0.4323218D+01 0.4323218D+01 0.4323218D+01 0.2207808D+01 0.2207808D+01
EXPONENTS  0.2207808D+01 0.2207808D+01 0.2207808D+01 0.2207808D+01 0.1127497D+01
EXPONENTS  0.1127497D+01 0.1127497D+01 0.1127497D+01 0.1127497D+01 0.1127497D+01
EXPONENTS  0.5757971D+00 0.5757971D+00 0.5757971D+00 0.5757971D+00 0.5757971D+00
EXPONENTS  0.5757971D+00 0.2940516D+00 0.2940516D+00 0.2940516D+00 0.2940516D+00
EXPONENTS  0.2940516D+00 0.2940516D+00 0.1501681D+00 0.1501681D+00 0.1501681D+00
EXPONENTS  0.1501681D+00 0.1501681D+00 0.1501681D+00
MO    1     MO 0.0        OCC NO =    2.0000000  ORB. ENERGY =-1224.397546
  0.12541670D+01 -0.58304238D+00  0.15253127D+01  0.36310781D+00  0.16773863D+01
  0.16246627D+01  0.27034691D+01  0.35271335D+01  0.50724450D+01  0.69910688D+01
  0.97603514D+01  0.13453590D+02  0.18342280D+02  0.24369757D+02  0.30798193D+02
  0.35386401D+02  0.33796007D+02  0.22604211D+02  0.77006143D+01  0.76440379D+00
  0.19237170D-01 -0.35491622D-02  0.15192205D-02 -0.94157897D-03  0.40001764D-03
 -0.16143312D-03  0.67876159D-04 -0.25880926D-04  0.86913398D-05 -0.23013084D-05
  0.34094284D-06  0.00000000D+00  0.00000000D+00  0.00000000D+00  0.00000000D+00
  0.00000000D+00  0.00000000D+00  0.00000000D+00  0.00000000D+00  0.00000000D+00
  0.00000000D+00  0.00000000D+00  0.00000000D+00  0.00000000D+00  0.00000000D+00
  0.00000000D+00  0.00000000D+00  0.00000000D+00  0.00000000D+00  0.00000000D+00
  0.00000000D+00  0.00000000D+00  0.00000000D+00  0.00000000D+00  0.00000000D+00
  0.00000000D+00  0.00000000D+00  0.00000000D+00  0.00000000D+00  0.00000000D+00
  0.00000000D+00  0.00000000D+00  0.00000000D+00  0.00000000D+00  0.00000000D+00
  0.00000000D+00  0.00000000D+00  0.00000000D+00  0.00000000D+00  0.00000000D+00
  0.00000000D+00  0.00000000D+00  0.00000000D+00  0.00000000D+00  0.00000000D+00
  0.00000000D+00  0.00000000D+00  0.00000000D+00  0.00000000D+00  0.00000000D+00
  0.00000000D+00  0.00000000D+00  0.00000000D+00  0.00000000D+00  0.00000000D+00
  0.00000000D+00  0.00000000D+00  0.00000000D+00  0.00000000D+00  0.00000000D+00
  0.00000000D+00  0.00000000D+00  0.00000000D+00  0.00000000D+00  0.00000000D+00
  0.00000000D+00  0.00000000D+00  0.62723487D-05 -0.14467566D-04  0.81952168D-05
  0.00000000D+00  0.00000000D+00  0.00000000D+00 -0.11876993D-04  0.27026966D-04
 -0.15149973D-04  0.00000000D+00  0.00000000D+00  0.00000000D+00  0.50239561D-05
 -0.12058232D-04  0.70342758D-05  0.00000000D+00  0.00000000D+00  0.00000000D+00
 -0.10826252D-05  0.36162117D-05 -0.25335865D-05  0.00000000D+00  0.00000000D+00
  0.00000000D+00  0.15657686D-06 -0.96496129D-06  0.80838443D-06  0.00000000D+00
  0.00000000D+00  0.00000000D+00  0.21215523D-06  0.59880543D-06 -0.81096066D-06
  0.00000000D+00  0.00000000D+00  0.00000000D+00 -0.12798354D-06 -0.25392781D-06
  0.38191136D-06  0.00000000D+00  0.00000000D+00  0.00000000D+00  0.37907221D-07
  0.69127536D-07 -0.10703476D-06  0.00000000D+00  0.00000000D+00  0.00000000D+00
 -0.84926170D-08 -0.15107173D-07  0.23599790D-07  0.00000000D+00  0.00000000D+00
  0.00000000D+00  0.17242578D-08  0.30567711D-08 -0.47810289D-08  0.00000000D+00
  0.00000000D+00  0.00000000D+00 -0.34098920D-09 -0.60621121D-09  0.94720041D-09
  0.00000000D+00  0.00000000D+00  0.00000000D+00  0.66655225D-10  0.11891362D-09
 -0.18556884D-09  0.00000000D+00  0.00000000D+00  0.00000000D+00 -0.12679575D-10
 -0.22688298D-10  0.35367873D-10  0.00000000D+00  0.00000000D+00  0.00000000D+00
  0.22417237D-11  0.40208715D-11 -0.62625953D-11  0.00000000D+00  0.00000000D+00
  0.00000000D+00 -0.33064123D-12 -0.59411120D-12  0.92475243D-12  0.00000000D+00
  0.00000000D+00  0.00000000D+00  0.30234794D-13  0.54392510D-13 -0.84627304D-13
  0.00000000D+00  0.00000000D+00  0.00000000D+00
MO    2     MO 0.0        OCC NO =    2.0000000  ORB. ENERGY = -189.339917
 -0.40799422D+00  0.19018731D+00 -0.49708558D+00 -0.11642767D+00 -0.54767217D+00
 -0.52555826D+00 -0.88296326D+00 -0.11434527D+01 -0.16575267D+01 -0.22739944D+01
 -0.32024406D+01 -0.44199829D+01 -0.61258707D+01 -0.82993396D+01 -0.11014506D+02
 -0.13751439D+02 -0.15524814D+02 -0.13730438D+02 -0.61860786D+01  0.49759048D+01
  0.91991936D+01  0.37184264D+01  0.30673964D+00  0.13780932D-01 -0.44325197D-02
  0.16229915D-02 -0.78127340D-03  0.29909730D-03 -0.10033885D-03  0.27029276D-04
 -0.39866487D-05  0.00000000D+00  0.00000000D+00  0.00000000D+00  0.00000000D+00
  0.00000000D+00  0.00000000D+00  0.00000000D+00  0.00000000D+00  0.00000000D+00
  0.00000000D+00  0.00000000D+00  0.00000000D+00  0.00000000D+00  0.00000000D+00
  0.00000000D+00  0.00000000D+00  0.00000000D+00  0.00000000D+00  0.00000000D+00
  0.00000000D+00  0.00000000D+00  0.00000000D+00  0.00000000D+00  0.00000000D+00
  0.00000000D+00  0.00000000D+00  0.00000000D+00  0.00000000D+00  0.00000000D+00
  0.00000000D+00  0.00000000D+00  0.00000000D+00  0.00000000D+00  0.00000000D+00
  0.00000000D+00  0.00000000D+00  0.00000000D+00  0.00000000D+00  0.00000000D+00
  0.00000000D+00  0.00000000D+00  0.00000000D+00  0.00000000D+00  0.00000000D+00
  0.00000000D+00  0.00000000D+00  0.00000000D+00  0.00000000D+00  0.00000000D+00
  0.00000000D+00  0.00000000D+00  0.00000000D+00  0.00000000D+00  0.00000000D+00
  0.00000000D+00  0.00000000D+00  0.00000000D+00  0.00000000D+00  0.00000000D+00
  0.00000000D+00  0.00000000D+00  0.00000000D+00  0.00000000D+00  0.00000000D+00
  0.00000000D+00  0.00000000D+00  0.24579475D-08 -0.32405095D-08  0.78256203D-09
  0.00000000D+00  0.00000000D+00  0.00000000D+00 -0.41651496D-08  0.52523048D-08
 -0.10871553D-08  0.00000000D+00  0.00000000D+00  0.00000000D+00  0.36508481D-08
 -0.48860420D-08  0.12351939D-08  0.00000000D+00  0.00000000D+00  0.00000000D+00
 -0.38103252D-08  0.51548072D-08 -0.13444820D-08  0.00000000D+00  0.00000000D+00
  0.00000000D+00  0.15476576D-08 -0.21413776D-08  0.59372000D-09  0.00000000D+00
  0.00000000D+00  0.00000000D+00 -0.38937804D-09  0.55659805D-09 -0.16722001D-09
  0.00000000D+00  0.00000000D+00  0.00000000D+00  0.77062082D-10 -0.11685176D-09
  0.39789676D-10  0.00000000D+00  0.00000000D+00  0.00000000D+00 -0.13721784D-10
  0.22611943D-10 -0.88901592D-11  0.00000000D+00  0.00000000D+00  0.00000000D+00
  0.22972820D-11 -0.42119173D-11  0.19146353D-11  0.00000000D+00  0.00000000D+00
  0.00000000D+00 -0.33690195D-12  0.77280279D-12 -0.43590084D-12  0.00000000D+00
  0.00000000D+00  0.00000000D+00  0.36780747D-13 -0.15166007D-12  0.11487933D-12
  0.00000000D+00  0.00000000D+00  0.00000000D+00  0.29033572D-14  0.29790495D-13
 -0.32693852D-13  0.00000000D+00  0.00000000D+00  0.00000000D+00 -0.30806429D-14
 -0.53215253D-14  0.84021682D-14  0.00000000D+00  0.00000000D+00  0.00000000D+00
  0.10617818D-14  0.36739268D-15 -0.14291744D-14  0.00000000D+00  0.00000000D+00
  0.00000000D+00 -0.22147215D-15  0.97621204D-16  0.12385095D-15  0.00000000D+00
  0.00000000D+00  0.00000000D+00  0.24739951D-16 -0.26484983D-16  0.17450321D-17
  0.00000000D+00  0.00000000D+00  0.00000000D+00
MO    3     MO 0.0        OCC NO =    2.0000000  ORB. ENERGY = -177.782242
  0.00000000D+00  0.00000000D+00  0.00000000D+00  0.00000000D+00  0.00000000D+00
  0.00000000D+00  0.00000000D+00  0.00000000D+00  0.00000000D+00  0.00000000D+00
  0.00000000D+00  0.00000000D+00  0.00000000D+00  0.00000000D+00  0.00000000D+00
  0.00000000D+00  0.00000000D+00  0.00000000D+00  0.00000000D+00  0.00000000D+00
  0.00000000D+00  0.00000000D+00  0.00000000D+00  0.00000000D+00  0.00000000D+00
  0.00000000D+00  0.00000000D+00  0.00000000D+00  0.00000000D+00  0.00000000D+00
  0.00000000D+00  0.00000000D+00  0.00000000D+00  0.63340118D+02  0.00000000D+00
  0.00000000D+00  0.16770756D+02  0.00000000D+00  0.00000000D+00  0.69566526D+02
  0.00000000D+00  0.00000000D+00  0.72860722D+02  0.00000000D+00  0.00000000D+00
  0.11188088D+03  0.00000000D+00  0.00000000D+00  0.14638360D+03  0.00000000D+00
  0.00000000D+00  0.19633874D+03  0.00000000D+00  0.00000000D+00  0.24463602D+03
  0.00000000D+00  0.00000000D+00  0.28223738D+03  0.00000000D+00  0.00000000D+00
  0.27321096D+03  0.00000000D+00  0.00000000D+00  0.19983258D+03  0.00000000D+00
  0.00000000D+00  0.87004760D+02  0.00000000D+00  0.00000000D+00  0.16199581D+02
  0.00000000D+00  0.00000000D+00  0.80052821D+00  0.00000000D+00  0.00000000D+00
  0.19416085D-01  0.00000000D+00  0.00000000D+00 -0.39535163D-02  0.00000000D+00
  0.00000000D+00  0.64081403D-03  0.00000000D+00  0.00000000D+00 -0.29443615D-03
  0.00000000D+00  0.00000000D+00  0.73688824D-04  0.00000000D+00  0.00000000D+00
 -0.18509023D-04  0.00000000D+00  0.00000000D+00  0.37269786D-05  0.00000000D+00
  0.00000000D+00 -0.44052120D-06  0.00000000D+00  0.00000000D+00  0.00000000D+00
  0.00000000D+00  0.00000000D+00  0.00000000D+00  0.00000000D+00  0.00000000D+00
  0.00000000D+00  0.00000000D+00  0.00000000D+00  0.00000000D+00  0.00000000D+00
  0.00000000D+00  0.00000000D+00  0.00000000D+00  0.00000000D+00  0.00000000D+00
  0.00000000D+00  0.00000000D+00  0.00000000D+00  0.00000000D+00  0.00000000D+00
  0.00000000D+00  0.00000000D+00  0.00000000D+00  0.00000000D+00  0.00000000D+00
  0.00000000D+00  0.00000000D+00  0.00000000D+00  0.00000000D+00  0.00000000D+00
  0.00000000D+00  0.00000000D+00  0.00000000D+00  0.00000000D+00  0.00000000D+00
  0.00000000D+00  0.00000000D+00  0.00000000D+00  0.00000000D+00  0.00000000D+00
  0.00000000D+00  0.00000000D+00  0.00000000D+00  0.00000000D+00  0.00000000D+00
  0.00000000D+00  0.00000000D+00  0.00000000D+00  0.00000000D+00  0.00000000D+00
  0.00000000D+00  0.00000000D+00  0.00000000D+00  0.00000000D+00  0.00000000D+00
  0.00000000D+00  0.00000000D+00  0.00000000D+00  0.00000000D+00  0.00000000D+00
  0.00000000D+00  0.00000000D+00  0.00000000D+00  0.00000000D+00  0.00000000D+00
  0.00000000D+00  0.00000000D+00  0.00000000D+00  0.00000000D+00  0.00000000D+00
  0.00000000D+00  0.00000000D+00  0.00000000D+00  0.00000000D+00  0.00000000D+00
  0.00000000D+00  0.00000000D+00  0.00000000D+00  0.00000000D+00  0.00000000D+00
  0.00000000D+00  0.00000000D+00  0.00000000D+00  0.00000000D+00  0.00000000D+00
  0.00000000D+00  0.00000000D+00  0.00000000D+00  0.00000000D+00  0.00000000D+00
  0.00000000D+00  0.00000000D+00  0.00000000D+00
MO    4     MO 0.0        OCC NO =    2.0000000  ORB. ENERGY = -177.782242
  0.00000000D+00  0.00000000D+00  0.00000000D+00  0.00000000D+00  0.00000000D+00
  0.00000000D+00  0.00000000D+00  0.00000000D+00  0.00000000D+00  0.00000000D+00
  0.00000000D+00  0.00000000D+00  0.00000000D+00  0.00000000D+00  0.00000000D+00
  0.00000000D+00  0.00000000D+00  0.00000000D+00  0.00000000D+00  0.00000000D+00
  0.00000000D+00  0.00000000D+00  0.00000000D+00  0.00000000D+00  0.00000000D+00
  0.00000000D+00  0.00000000D+00  0.00000000D+00  0.00000000D+00  0.00000000D+00
  0.00000000D+00  0.63340118D+02  0.00000000D+00  0.00000000D+00  0.16770756D+02
  0.00000000D+00  0.00000000D+00  0.69566526D+02  0.00000000D+00  0.00000000D+00
  0.72860722D+02  0.00000000D+00  0.00000000D+00  0.11188088D+03  0.00000000D+00
  0.00000000D+00  0.14638360D+03  0.00000000D+00  0.00000000D+00  0.19633874D+03
  0.00000000D+00  0.00000000D+00  0.24463602D+03  0.00000000D+00  0.00000000D+00
  0.28223738D+03  0.00000000D+00  0.00000000D+00  0.27321096D+03  0.00000000D+00
  0.00000000D+00  0.19983258D+03  0.00000000D+00  0.00000000D+00  0.87004760D+02
  0.00000000D+00  0.00000000D+00  0.16199581D+02  0.00000000D+00  0.00000000D+00
  0.80052821D+00  0.00000000D+00  0.00000000D+00  0.19416085D-01  0.00000000D+00
  0.00000000D+00 -0.39535163D-02  0.00000000D+00  0.00000000D+00  0.64081403D-03
  0.00000000D+00  0.00000000D+00 -0.29443615D-03  0.00000000D+00  0.00000000D+00
  0.73688824D-04  0.00000000D+00  0.00000000D+00 -0.18509023D-04  0.00000000D+00
  0.00000000D+00  0.37269786D-05  0.00000000D+00  0.00000000D+00 -0.44052120D-06
  0.00000000D+00  0.00000000D+00  0.00000000D+00  0.00000000D+00  0.00000000D+00
  0.00000000D+00  0.00000000D+00  0.00000000D+00  0.00000000D+00  0.00000000D+00
  0.00000000D+00  0.00000000D+00  0.00000000D+00  0.00000000D+00  0.00000000D+00
  0.00000000D+00  0.00000000D+00  0.00000000D+00  0.00000000D+00  0.00000000D+00
  0.00000000D+00  0.00000000D+00  0.00000000D+00  0.00000000D+00  0.00000000D+00
  0.00000000D+00  0.00000000D+00  0.00000000D+00  0.00000000D+00  0.00000000D+00
  0.00000000D+00  0.00000000D+00  0.00000000D+00  0.00000000D+00  0.00000000D+00
  0.00000000D+00  0.00000000D+00  0.00000000D+00  0.00000000D+00  0.00000000D+00
  0.00000000D+00  0.00000000D+00  0.00000000D+00  0.00000000D+00  0.00000000D+00
  0.00000000D+00  0.00000000D+00  0.00000000D+00  0.00000000D+00  0.00000000D+00
  0.00000000D+00  0.00000000D+00  0.00000000D+00  0.00000000D+00  0.00000000D+00
  0.00000000D+00  0.00000000D+00  0.00000000D+00  0.00000000D+00  0.00000000D+00
  0.00000000D+00  0.00000000D+00  0.00000000D+00  0.00000000D+00  0.00000000D+00
  0.00000000D+00  0.00000000D+00  0.00000000D+00  0.00000000D+00  0.00000000D+00
  0.00000000D+00  0.00000000D+00  0.00000000D+00  0.00000000D+00  0.00000000D+00
  0.00000000D+00  0.00000000D+00  0.00000000D+00  0.00000000D+00  0.00000000D+00
  0.00000000D+00  0.00000000D+00  0.00000000D+00  0.00000000D+00  0.00000000D+00
  0.00000000D+00  0.00000000D+00  0.00000000D+00  0.00000000D+00  0.00000000D+00
  0.00000000D+00  0.00000000D+00  0.00000000D+00  0.00000000D+00  0.00000000D+00
  0.00000000D+00  0.00000000D+00  0.00000000D+00
MO    5     MO 0.0        OCC NO =    2.0000000  ORB. ENERGY = -177.782242
  0.00000000D+00  0.00000000D+00  0.00000000D+00  0.00000000D+00  0.00000000D+00
  0.00000000D+00  0.00000000D+00  0.00000000D+00  0.00000000D+00  0.00000000D+00
  0.00000000D+00  0.00000000D+00  0.00000000D+00  0.00000000D+00  0.00000000D+00
  0.00000000D+00  0.00000000D+00  0.00000000D+00  0.00000000D+00  0.00000000D+00
  0.00000000D+00  0.00000000D+00  0.00000000D+00  0.00000000D+00  0.00000000D+00
  0.00000000D+00  0.00000000D+00  0.00000000D+00  0.00000000D+00  0.00000000D+00
  0.00000000D+00  0.00000000D+00  0.63340118D+02  0.00000000D+00  0.00000000D+00
  0.16770756D+02  0.00000000D+00  0.00000000D+00  0.69566526D+02  0.00000000D+00
  0.00000000D+00  0.72860722D+02  0.00000000D+00  0.00000000D+00  0.11188088D+03
  0.00000000D+00  0.00000000D+00  0.14638360D+03  0.00000000D+00  0.00000000D+00
  0.19633874D+03  0.00000000D+00  0.00000000D+00  0.24463602D+03  0.00000000D+00
  0.00000000D+00  0.28223738D+03  0.00000000D+00  0.00000000D+00  0.27321096D+03
  0.00000000D+00  0.00000000D+00  0.19983258D+03  0.00000000D+00  0.00000000D+00
  0.87004760D+02  0.00000000D+00  0.00000000D+00  0.16199581D+02  0.00000000D+00
  0.00000000D+00  0.80052821D+00  0.00000000D+00  0.00000000D+00  0.19416085D-01
  0.00000000D+00  0.00000000D+00 -0.39535163D-02  0.00000000D+00  0.00000000D+00
  0.64081403D-03  0.00000000D+00  0.00000000D+00 -0.29443615D-03  0.00000000D+00
  0.00000000D+00  0.73688824D-04  0.00000000D+00  0.00000000D+00 -0.18509023D-04
  0.00000000D+00  0.00000000D+00  0.37269786D-05  0.00000000D+00  0.00000000D+00
 -0.44052120D-06  0.00000000D+00  0.00000000D+00  0.00000000D+00  0.00000000D+00
  0.00000000D+00  0.00000000D+00  0.00000000D+00  0.00000000D+00  0.00000000D+00
  0.00000000D+00  0.00000000D+00  0.00000000D+00  0.00000000D+00  0.00000000D+00
  0.00000000D+00  0.00000000D+00  0.00000000D+00  0.00000000D+00  0.00000000D+00
  0.00000000D+00  0.00000000D+00  0.00000000D+00  0.00000000D+00  0.00000000D+00
  0.00000000D+00  0.00000000D+00  0.00000000D+00  0.00000000D+00  0.00000000D+00
  0.00000000D+00  0.00000000D+00  0.00000000D+00  0.00000000D+00  0.00000000D+00
  0.00000000D+00  0.00000000D+00  0.00000000D+00  0.00000000D+00  0.00000000D+00
  0.00000000D+00  0.00000000D+00  0.00000000D+00  0.00000000D+00  0.00000000D+00
  0.00000000D+00  0.00000000D+00  0.00000000D+00  0.00000000D+00  0.00000000D+00
  0.00000000D+00  0.00000000D+00  0.00000000D+00  0.00000000D+00  0.00000000D+00
  0.00000000D+00  0.00000000D+00  0.00000000D+00  0.00000000D+00  0.00000000D+00
  0.00000000D+00  0.00000000D+00  0.00000000D+00  0.00000000D+00  0.00000000D+00
  0.00000000D+00  0.00000000D+00  0.00000000D+00  0.00000000D+00  0.00000000D+00
  0.00000000D+00  0.00000000D+00  0.00000000D+00  0.00000000D+00  0.00000000D+00
  0.00000000D+00  0.00000000D+00  0.00000000D+00  0.00000000D+00  0.00000000D+00
  0.00000000D+00  0.00000000D+00  0.00000000D+00  0.00000000D+00  0.00000000D+00
  0.00000000D+00  0.00000000D+00  0.00000000D+00  0.00000000D+00  0.00000000D+00
  0.00000000D+00  0.00000000D+00  0.00000000D+00  0.00000000D+00  0.00000000D+00
  0.00000000D+00  0.00000000D+00  0.00000000D+00
MO    6     MO 0.0        OCC NO =    2.0000000  ORB. ENERGY =  -40.175446
  0.18266948D+00 -0.85718225D-01  0.22351803D+00  0.50260053D-01  0.24734258D+00
  0.23193467D+00  0.39876953D+00  0.50658788D+00  0.74737724D+00  0.10100537D+01
  0.14424980D+01  0.19690034D+01  0.27629289D+01  0.37200638D+01  0.50132889D+01
  0.62859874D+01  0.73374651D+01  0.67264426D+01  0.33514559D+01 -0.32610928D+01
 -0.79501207D+01 -0.45446501D+01  0.25449149D+01  0.28563763D+01  0.36770002D+00
  0.24977152D-01 -0.53885906D-02  0.25476027D-02 -0.93821949D-03  0.24570059D-03
 -0.38201877D-04  0.00000000D+00  0.00000000D+00  0.00000000D+00  0.00000000D+00
  0.00000000D+00  0.00000000D+00  0.00000000D+00  0.00000000D+00  0.00000000D+00
  0.00000000D+00  0.00000000D+00  0.00000000D+00  0.00000000D+00  0.00000000D+00
  0.00000000D+00  0.00000000D+00  0.00000000D+00  0.00000000D+00  0.00000000D+00
  0.00000000D+00  0.00000000D+00  0.00000000D+00  0.00000000D+00  0.00000000D+00
  0.00000000D+00  0.00000000D+00  0.00000000D+00  0.00000000D+00  0.00000000D+00
  0.00000000D+00  0.00000000D+00  0.00000000D+00  0.00000000D+00  0.00000000D+00
  0.00000000D+00  0.00000000D+00  0.00000000D+00  0.00000000D+00  0.00000000D+00
  0.00000000D+00  0.00000000D+00  0.00000000D+00  0.00000000D+00  0.00000000D+00
  0.00000000D+00  0.00000000D+00  0.00000000D+00  0.00000000D+00  0.00000000D+00
  0.00000000D+00  0.00000000D+00  0.00000000D+00  0.00000000D+00  0.00000000D+00
  0.00000000D+00  0.00000000D+00  0.00000000D+00  0.00000000D+00  0.00000000D+00
  0.00000000D+00  0.00000000D+00  0.00000000D+00  0.00000000D+00  0.00000000D+00
  0.00000000D+00  0.00000000D+00  0.12131454D-05 -0.15483762D-05  0.33523075D-06
  0.00000000D+00  0.00000000D+00  0.00000000D+00 -0.18847144D-05  0.23985153D-05
 -0.51380088D-06  0.00000000D+00  0.00000000D+00  0.00000000D+00  0.16902546D-05
 -0.21700609D-05  0.47980637D-06  0.00000000D+00  0.00000000D+00  0.00000000D+00
 -0.17555677D-05  0.22669830D-05 -0.51141533D-06  0.00000000D+00  0.00000000D+00
  0.00000000D+00  0.72866811D-06 -0.94282468D-06  0.21415657D-06  0.00000000D+00
  0.00000000D+00  0.00000000D+00 -0.19096560D-06  0.24737266D-06 -0.56407060D-07
  0.00000000D+00  0.00000000D+00  0.00000000D+00  0.41153077D-07 -0.53324185D-07
  0.12171108D-07  0.00000000D+00  0.00000000D+00  0.00000000D+00 -0.83302188D-08
  0.10790799D-07 -0.24605801D-08  0.00000000D+00  0.00000000D+00  0.00000000D+00
  0.16693021D-08 -0.21604505D-08  0.49114839D-09  0.00000000D+00  0.00000000D+00
  0.00000000D+00 -0.33575810D-09  0.43374545D-09 -0.97987352D-10  0.00000000D+00
  0.00000000D+00  0.00000000D+00  0.67579203D-10 -0.87084452D-10  0.19505249D-10
  0.00000000D+00  0.00000000D+00  0.00000000D+00 -0.13470831D-10  0.17305173D-10
 -0.38343425D-11  0.00000000D+00  0.00000000D+00  0.00000000D+00  0.26024159D-11
 -0.33323182D-11  0.72990238D-12  0.00000000D+00  0.00000000D+00  0.00000000D+00
 -0.46561173D-12  0.59448627D-12 -0.12887454D-12  0.00000000D+00  0.00000000D+00
  0.00000000D+00  0.69293949D-13 -0.88320899D-13  0.19026951D-13  0.00000000D+00
  0.00000000D+00  0.00000000D+00 -0.63814001D-14  0.81233613D-14 -0.17419612D-14
  0.00000000D+00  0.00000000D+00  0.00000000D+00
MO    7     MO 0.0        OCC NO =    2.0000000  ORB. ENERGY =  -35.221450
  0.00000000D+00  0.00000000D+00  0.00000000D+00  0.00000000D+00  0.00000000D+00
  0.00000000D+00  0.00000000D+00  0.00000000D+00  0.00000000D+00  0.00000000D+00
  0.00000000D+00  0.00000000D+00  0.00000000D+00  0.00000000D+00  0.00000000D+00
  0.00000000D+00  0.00000000D+00  0.00000000D+00  0.00000000D+00  0.00000000D+00
  0.00000000D+00  0.00000000D+00  0.00000000D+00  0.00000000D+00  0.00000000D+00
  0.00000000D+00  0.00000000D+00  0.00000000D+00  0.00000000D+00  0.00000000D+00
  0.00000000D+00  0.00000000D+00 -0.29835355D+02  0.00000000D+00  0.00000000D+00
 -0.73306146D+01  0.00000000D+00  0.00000000D+00 -0.33159490D+02  0.00000000D+00
  0.00000000D+00 -0.33437358D+02  0.00000000D+00  0.00000000D+00 -0.53128649D+02
  0.00000000D+00  0.00000000D+00 -0.68362170D+02  0.00000000D+00  0.00000000D+00
 -0.93838496D+02  0.00000000D+00  0.00000000D+00 -0.11758354D+03  0.00000000D+00
  0.00000000D+00 -0.14089703D+03  0.00000000D+00  0.00000000D+00 -0.14205659D+03
  0.00000000D+00  0.00000000D+00 -0.11177797D+03  0.00000000D+00  0.00000000D+00
 -0.45938715D+02  0.00000000D+00  0.00000000D+00  0.11448272D+02  0.00000000D+00
  0.00000000D+00  0.24473063D+02  0.00000000D+00  0.00000000D+00  0.89268368D+01
  0.00000000D+00  0.00000000D+00  0.73589628D+00  0.00000000D+00  0.00000000D+00
  0.34642257D-01  0.00000000D+00  0.00000000D+00 -0.44142631D-02  0.00000000D+00
  0.00000000D+00  0.15178792D-02  0.00000000D+00  0.00000000D+00 -0.39980178D-03
  0.00000000D+00  0.00000000D+00  0.80990212D-04  0.00000000D+00  0.00000000D+00
 -0.97762270D-05  0.00000000D+00  0.00000000D+00  0.00000000D+00  0.00000000D+00
  0.00000000D+00  0.00000000D+00  0.00000000D+00  0.00000000D+00  0.00000000D+00
  0.00000000D+00  0.00000000D+00  0.00000000D+00  0.00000000D+00  0.00000000D+00
  0.00000000D+00  0.00000000D+00  0.00000000D+00  0.00000000D+00  0.00000000D+00
  0.00000000D+00  0.00000000D+00  0.00000000D+00  0.00000000D+00  0.00000000D+00
  0.00000000D+00  0.00000000D+00  0.00000000D+00  0.00000000D+00  0.00000000D+00
  0.00000000D+00  0.00000000D+00  0.00000000D+00  0.00000000D+00  0.00000000D+00
  0.00000000D+00  0.00000000D+00  0.00000000D+00  0.00000000D+00  0.00000000D+00
  0.00000000D+00  0.00000000D+00  0.00000000D+00  0.00000000D+00  0.00000000D+00
  0.00000000D+00  0.00000000D+00  0.00000000D+00  0.00000000D+00  0.00000000D+00
  0.00000000D+00  0.00000000D+00  0.00000000D+00  0.00000000D+00  0.00000000D+00
  0.00000000D+00  0.00000000D+00  0.00000000D+00  0.00000000D+00  0.00000000D+00
  0.00000000D+00  0.00000000D+00  0.00000000D+00  0.00000000D+00  0.00000000D+00
  0.00000000D+00  0.00000000D+00  0.00000000D+00  0.00000000D+00  0.00000000D+00
  0.00000000D+00  0.00000000D+00  0.00000000D+00  0.00000000D+00  0.00000000D+00
  0.00000000D+00  0.00000000D+00  0.00000000D+00  0.00000000D+00  0.00000000D+00
  0.00000000D+00  0.00000000D+00  0.00000000D+00  0.00000000D+00  0.00000000D+00
  0.00000000D+00  0.00000000D+00  0.00000000D+00  0.00000000D+00  0.00000000D+00
  0.00000000D+00  0.00000000D+00  0.00000000D+00  0.00000000D+00  0.00000000D+00
  0.00000000D+00  0.00000000D+00  0.00000000D+00
MO    8     MO 0.0        OCC NO =    2.0000000  ORB. ENERGY =  -35.221450
  0.00000000D+00  0.00000000D+00  0.00000000D+00  0.00000000D+00  0.00000000D+00
  0.00000000D+00  0.00000000D+00  0.00000000D+00  0.00000000D+00  0.00000000D+00
  0.00000000D+00  0.00000000D+00  0.00000000D+00  0.00000000D+00  0.00000000D+00
  0.00000000D+00  0.00000000D+00  0.00000000D+00  0.00000000D+00  0.00000000D+00
  0.00000000D+00  0.00000000D+00  0.00000000D+00  0.00000000D+00  0.00000000D+00
  0.00000000D+00  0.00000000D+00  0.00000000D+00  0.00000000D+00  0.00000000D+00
  0.00000000D+00  0.00000000D+00  0.00000000D+00 -0.29835355D+02  0.00000000D+00
  0.00000000D+00 -0.73306146D+01  0.00000000D+00  0.00000000D+00 -0.33159490D+02
  0.00000000D+00  0.00000000D+00 -0.33437358D+02  0.00000000D+00  0.00000000D+00
 -0.53128649D+02  0.00000000D+00  0.00000000D+00 -0.68362170D+02  0.00000000D+00
  0.00000000D+00 -0.93838496D+02  0.00000000D+00  0.00000000D+00 -0.11758354D+03
  0.00000000D+00  0.00000000D+00 -0.14089703D+03  0.00000000D+00  0.00000000D+00
 -0.14205659D+03  0.00000000D+00  0.00000000D+00 -0.11177797D+03  0.00000000D+00
  0.00000000D+00 -0.45938715D+02  0.00000000D+00  0.00000000D+00  0.11448272D+02
  0.00000000D+00  0.00000000D+00  0.24473063D+02  0.00000000D+00  0.00000000D+00
  0.89268368D+01  0.00000000D+00  0.00000000D+00  0.73589628D+00  0.00000000D+00
  0.00000000D+00  0.34642257D-01  0.00000000D+00  0.00000000D+00 -0.44142631D-02
  0.00000000D+00  0.00000000D+00  0.15178792D-02  0.00000000D+00  0.00000000D+00
 -0.39980178D-03  0.00000000D+00  0.00000000D+00  0.80990212D-04  0.00000000D+00
  0.00000000D+00 -0.97762270D-05  0.00000000D+00  0.00000000D+00  0.00000000D+00
  0.00000000D+00  0.00000000D+00  0.00000000D+00  0.00000000D+00  0.00000000D+00
  0.00000000D+00  0.00000000D+00  0.00000000D+00  0.00000000D+00  0.00000000D+00
  0.00000000D+00  0.00000000D+00  0.00000000D+00  0.00000000D+00  0.00000000D+00
  0.00000000D+00  0.00000000D+00  0.00000000D+00  0.00000000D+00  0.00000000D+00
  0.00000000D+00  0.00000000D+00  0.00000000D+00  0.00000000D+00  0.00000000D+00
  0.00000000D+00  0.00000000D+00  0.00000000D+00  0.00000000D+00  0.00000000D+00
  0.00000000D+00  0.00000000D+00  0.00000000D+00  0.00000000D+00  0.00000000D+00
  0.00000000D+00  0.00000000D+00  0.00000000D+00  0.00000000D+00  0.00000000D+00
  0.00000000D+00  0.00000000D+00  0.00000000D+00  0.00000000D+00  0.00000000D+00
  0.00000000D+00  0.00000000D+00  0.00000000D+00  0.00000000D+00  0.00000000D+00
  0.00000000D+00  0.00000000D+00  0.00000000D+00  0.00000000D+00  0.00000000D+00
  0.00000000D+00  0.00000000D+00  0.00000000D+00  0.00000000D+00  0.00000000D+00