 TITLE
GAUSSIAN              1 MOL ORBITALS    114 PRIMITIVES        2 NUCLEI
  H    1    (CENTRE  1)   0.00000000  0.00000000  0.00000000  CHARGE =  1.0
  H    2    (CENTRE  2)   0.00000000  0.00000000  8.50376756  CHARGE =  0.0
CENTRE ASSIGNMENTS    1  1  1  1  1  1  1  1  1  1  1  1  1  1  1  1  1  1  1  1
CENTRE ASSIGNMENTS    1  1  1  1  1  1  1  1  1  1  1  1  1  1  1  1  1  1  1  1
CENTRE ASSIGNMENTS    1  1  1  1  1  1  1  1  1  1  1  1  1  1  1  1  1  2  2  2
CENTRE ASSIGNMENTS    2  2  2  2  2  2  2  2  2  2  2  2  2  2  2  2  2  2  2  2
CENTRE ASSIGNMENTS    2  2  2  2  2  2  2  2  2  2  2  2  2  2  2  2  2  2  2  2
CENTRE ASSIGNMENTS    2  2  2  2  2  2  2  2  2  2  2  2  2  2
TYPE ASSIGNMENTS      1  1  1  1  1  1  1  2  3  4  2  3  4  2  3  4  2  3  4  5
TYPE ASSIGNMENTS      6  7  8  9 10  5  6  7  8  9 10  5  6  7  8  9 10 11 12 13
TYPE ASSIGNMENTS     17 14 15 18 19 16 20 11 12 13 17 14 15 18 19 16 20  1  1  1
TYPE ASSIGNMENTS      1  1  1  1  2  3  4  2  3  4  2  3  4  2  3  4  5  6  7  8
TYPE ASSIGNMENTS      9 10  5  6  7  8  9 10  5  6  7  8  9 10 11 12 13 17 14 15
TYPE ASSIGNMENTS     18 19 16 20 11 12 13 17 14 15 18 19 16 20
EXPONENTS  0.8264000D+02 0.1241000D+02 0.2824000D+01 0.7977000D+00 0.2581000D+00
EXPONENTS  0.8989000D-01 0.2363000D-01 0.2292000D+01 0.2292000D+01 0.2292000D+01
EXPONENTS  0.8380000D+00 0.8380000D+00 0.8380000D+00 0.2920000D+00 0.2920000D+00
EXPONENTS  0.2920000D+00 0.8480000D-01 0.8480000D-01 0.8480000D-01 0.2062000D+01
EXPONENTS  0.2062000D+01 0.2062000D+01 0.2062000D+01 0.2062000D+01 0.2062000D+01
EXPONENTS  0.6620000D+00 0.6620000D+00 0.6620000D+00 0.6620000D+00 0.6620000D+00
EXPONENTS  0.6620000D+00 0.1900000D+00 0.1900000D+00 0.1900000D+00 0.1900000D+00
EXPONENTS  0.1900000D+00 0.1900000D+00 0.1397000D+01 0.1397000D+01 0.1397000D+01
EXPONENTS  0.1397000D+01 0.1397000D+01 0.1397000D+01 0.1397000D+01 0.1397000D+01
EXPONENTS  0.1397000D+01 0.1397000D+01 0.3600000D+00 0.3600000D+00 0.3600000D+00
EXPONENTS  0.3600000D+00 0.3600000D+00 0.3600000D+00 0.3600000D+00 0.3600000D+00
EXPONENTS  0.3600000D+00 0.3600000D+00 0.8264000D+02 0.1241000D+02 0.2824000D+01
EXPONENTS  0.7977000D+00 0.2581000D+00 0.8989000D-01 0.2363000D-01 0.2292000D+01
EXPONENTS  0.2292000D+01 0.2292000D+01 0.8380000D+00 0.8380000D+00 0.8380000D+00
EXPONENTS  0.2920000D+00 0.2920000D+00 0.2920000D+00 0.8480000D-01 0.8480000D-01
EXPONENTS  0.8480000D-01 0.2062000D+01 0.2062000D+01 0.2062000D+01 0.2062000D+01
EXPONENTS  0.2062000D+01 0.2062000D+01 0.6620000D+00 0.6620000D+00 0.6620000D+00
EXPONENTS  0.6620000D+00 0.6620000D+00 0.6620000D+00 0.1900000D+00 0.1900000D+00
EXPONENTS  0.1900000D+00 0.1900000D+00 0.1900000D+00 0.1900000D+00 0.1397000D+01
EXPONENTS  0.1397000D+01 0.1397000D+01 0.1397000D+01 0.1397000D+01 0.1397000D+01
EXPONENTS  0.1397000D+01 0.1397000D+01 0.1397000D+01 0.1397000D+01 0.3600000D+00
EXPONENTS  0.3600000D+00 0.3600000D+00 0.3600000D+00 0.3600000D+00 0.3600000D+00
EXPONENTS  0.3600000D+00 0.3600000D+00 0.3600000D+00 0.3600000D+00
MO    1     MO 0.0        OCC NO =    1.0000000  ORB. ENERGY =   -0.499948
  0.39212409D-01  0.72350075D-01  0.11742201D+00  0.15419101D+00  0.12888751D+00
  0.34164486D-01  0.17163705D-03 -0.85906434D-17  0.23169393D-15 -0.65946755D-05
  0.80304992D-16 -0.14007124D-15  0.79155650D-05 -0.90942903D-16  0.42561883D-16
 -0.53367474D-05  0.24640708D-16  0.20071053D-16  0.13942375D-05 -0.13466919D-05
 -0.13466919D-05  0.26933838D-05 -0.12141879D-15 -0.59649106D-15  0.24357571D-15
  0.83540771D-06  0.83540771D-06 -0.16708154D-05  0.38371100D-16  0.14564022D-15
 -0.45771317D-16 -0.25050124D-06 -0.25050124D-06  0.50100248D-06  0.26799127D-18
 -0.21818808D-16 -0.14325220D-16 -0.14995897D-16  0.34572811D-16 -0.41556999D-07
  0.52796895D-16  0.23983691D-16  0.62335499D-07 -0.78092026D-17 -0.12770212D-15
  0.62335499D-07  0.97228250D-16  0.20925352D-17 -0.96823580D-18 -0.54493948D-08
 -0.85013121D-17  0.15247439D-16  0.81740923D-08  0.22237065D-17 -0.12342732D-16
  0.81740923D-08 -0.17666177D-16  0.44669349D-05  0.82418571D-05  0.13376288D-04
 -0.50700366D-04  0.63311667D-04 -0.35594203D-05  0.79604607D-05 -0.27056699D-15
  0.30288708D-15 -0.54483468D-04  0.25138528D-16 -0.34375588D-17  0.74742871D-04
  0.38671564D-16 -0.37486050D-16 -0.69270689D-04 -0.10895059D-16  0.93330935D-17
  0.70982399D-05  0.60333127D-04  0.60333127D-04 -0.12066625D-03 -0.10199472D-14
  0.24809635D-16  0.91208657D-15 -0.38642354D-04 -0.38642354D-04  0.77284707D-04
  0.73422203D-16 -0.29620237D-16 -0.77415294D-16  0.11663423D-04  0.11663423D-04
 -0.23326846D-04  0.26959554D-17 -0.46204559D-17 -0.52487967D-17  0.26920418D-16
 -0.62358399D-17 -0.53211488D-04  0.46992388D-16  0.17319545D-16  0.79817232D-04
 -0.12775364D-15  0.13879751D-17  0.79817232D-04  0.11695150D-16 -0.21894479D-17
  0.23885344D-17  0.15525176D-04 -0.96729074D-18  0.29691770D-17 -0.23287764D-04
  0.75356344D-17 -0.10134780D-16 -0.23287764D-04 -0.68010207D-18
END DATA
 TOTAL ENERGY =       -0.499948461280 THE VIRIAL(-V/T)=   2.00027825
