 TITLE
GAUSSIAN              1 MOL ORBITALS    114 PRIMITIVES        2 NUCLEI
  H    1    (CENTRE  1)   0.00000000  0.00000000  0.00000000  CHARGE =  1.0
  H    2    (CENTRE  2)   0.00000000  0.00000000 12.09424720  CHARGE =  0.0
CENTRE ASSIGNMENTS    1  1  1  1  1  1  1  1  1  1  1  1  1  1  1  1  1  1  1  1
CENTRE ASSIGNMENTS    1  1  1  1  1  1  1  1  1  1  1  1  1  1  1  1  1  1  1  1
CENTRE ASSIGNMENTS    1  1  1  1  1  1  1  1  1  1  1  1  1  1  1  1  1  2  2  2
CENTRE ASSIGNMENTS    2  2  2  2  2  2  2  2  2  2  2  2  2  2  2  2  2  2  2  2
CENTRE ASSIGNMENTS    2  2  2  2  2  2  2  2  2  2  2  2  2  2  2  2  2  2  2  2
CENTRE ASSIGNMENTS    2  2  2  2  2  2  2  2  2  2  2  2  2  2
TYPE ASSIGNMENTS      1  1  1  1  1  1  1  2  3  4  2  3  4  2  3  4  2  3  4  5
TYPE ASSIGNMENTS      6  7  8  9 10  5  6  7  8  9 10  5  6  7  8  9 10 11 12 13
TYPE ASSIGNMENTS     17 14 15 18 19 16 20 11 12 13 17 14 15 18 19 16 20  1  1  1
TYPE ASSIGNMENTS      1  1  1  1  2  3  4  2  3  4  2  3  4  2  3  4  5  6  7  8
TYPE ASSIGNMENTS      9 10  5  6  7  8  9 10  5  6  7  8  9 10 11 12 13 17 14 15
TYPE ASSIGNMENTS     18 19 16 20 11 12 13 17 14 15 18 19 16 20
EXPONENTS  0.8264000D+02 0.1241000D+02 0.2824000D+01 0.7977000D+00 0.2581000D+00
EXPONENTS  0.8989000D-01 0.2363000D-01 0.2292000D+01 0.2292000D+01 0.2292000D+01
EXPONENTS  0.8380000D+00 0.8380000D+00 0.8380000D+00 0.2920000D+00 0.2920000D+00
EXPONENTS  0.2920000D+00 0.8480000D-01 0.8480000D-01 0.8480000D-01 0.2062000D+01
EXPONENTS  0.2062000D+01 0.2062000D+01 0.2062000D+01 0.2062000D+01 0.2062000D+01
EXPONENTS  0.6620000D+00 0.6620000D+00 0.6620000D+00 0.6620000D+00 0.6620000D+00
EXPONENTS  0.6620000D+00 0.1900000D+00 0.1900000D+00 0.1900000D+00 0.1900000D+00
EXPONENTS  0.1900000D+00 0.1900000D+00 0.1397000D+01 0.1397000D+01 0.1397000D+01
EXPONENTS  0.1397000D+01 0.1397000D+01 0.1397000D+01 0.1397000D+01 0.1397000D+01
EXPONENTS  0.1397000D+01 0.1397000D+01 0.3600000D+00 0.3600000D+00 0.3600000D+00
EXPONENTS  0.3600000D+00 0.3600000D+00 0.3600000D+00 0.3600000D+00 0.3600000D+00
EXPONENTS  0.3600000D+00 0.3600000D+00 0.8264000D+02 0.1241000D+02 0.2824000D+01
EXPONENTS  0.7977000D+00 0.2581000D+00 0.8989000D-01 0.2363000D-01 0.2292000D+01
EXPONENTS  0.2292000D+01 0.2292000D+01 0.8380000D+00 0.8380000D+00 0.8380000D+00
EXPONENTS  0.2920000D+00 0.2920000D+00 0.2920000D+00 0.8480000D-01 0.8480000D-01
EXPONENTS  0.8480000D-01 0.2062000D+01 0.2062000D+01 0.2062000D+01 0.2062000D+01
EXPONENTS  0.2062000D+01 0.2062000D+01 0.6620000D+00 0.6620000D+00 0.6620000D+00
EXPONENTS  0.6620000D+00 0.6620000D+00 0.6620000D+00 0.1900000D+00 0.1900000D+00
EXPONENTS  0.1900000D+00 0.1900000D+00 0.1900000D+00 0.1900000D+00 0.1397000D+01
EXPONENTS  0.1397000D+01 0.1397000D+01 0.1397000D+01 0.1397000D+01 0.1397000D+01
EXPONENTS  0.1397000D+01 0.1397000D+01 0.1397000D+01 0.1397000D+01 0.3600000D+00
EXPONENTS  0.3600000D+00 0.3600000D+00 0.3600000D+00 0.3600000D+00 0.3600000D+00
EXPONENTS  0.3600000D+00 0.3600000D+00 0.3600000D+00 0.3600000D+00
MO    1     MO 0.0        OCC NO =    1.0000000  ORB. ENERGY =   -0.499948
  0.39212977D-01  0.72351124D-01  0.11742372D+00  0.15418472D+00  0.12889619D+00
  0.34159438D-01  0.17322184D-03 -0.18663736D-15  0.86669682D-16  0.31813170D-05
  0.20126234D-15 -0.82098440D-16 -0.38891058D-05 -0.72427566D-16  0.59501598D-16
  0.28478350D-05  0.98436440D-17 -0.18875112D-16 -0.12564411D-05  0.27107302D-06
  0.27107302D-06 -0.54214604D-06  0.15248662D-15 -0.38183661D-15 -0.13732753D-15
 -0.17855803D-06 -0.17855803D-06  0.35711606D-06 -0.23586434D-16  0.19197335D-15
  0.20847913D-16  0.67316235D-07  0.67316235D-07 -0.13463247D-06  0.12176123D-16
 -0.21885356D-16 -0.81039052D-17  0.51913693D-17  0.55577874D-16  0.29952744D-07
  0.37828427D-16 -0.61706226D-16 -0.44929116D-07 -0.53402535D-16 -0.10502740D-15
 -0.44929116D-07 -0.60691725D-16  0.23940285D-19  0.89199050D-18 -0.83555274D-08
 -0.63598462D-18  0.37102083D-17  0.12533291D-07  0.56416376D-18 -0.63861798D-17
  0.12533291D-07  0.24390467D-17 -0.17132678D-06 -0.31611181D-06 -0.51304003D-06
  0.72187652D-06  0.53851941D-05 -0.18282053D-04  0.10358631D-04 -0.11309220D-15
 -0.10211287D-15  0.46662304D-04  0.61020802D-16  0.31525394D-16 -0.56468711D-04
 -0.14704069D-16  0.24627815D-18  0.40163605D-04  0.18380121D-17 -0.22952346D-17
 -0.13907199D-04 -0.11588669D-04 -0.11588669D-04  0.23177339D-04 -0.50716982D-15
  0.81004186D-15  0.14622533D-14  0.72791838D-05  0.72791838D-05 -0.14558368D-04
  0.29085600D-16 -0.12951667D-15 -0.81730206D-16 -0.24466106D-05 -0.24466106D-05
  0.48932213D-05  0.46305755D-17  0.12525159D-16 -0.86606793D-17  0.50246535D-18
  0.84160979D-17  0.38543626D-05 -0.10000361D-16 -0.17296946D-16 -0.57815439D-05
  0.84929650D-17 -0.79513478D-17 -0.57815439D-05 -0.28965824D-16 -0.11876580D-17
 -0.47848933D-18 -0.11133746D-05  0.20594336D-19  0.77843992D-18  0.16700619D-05
  0.35423798D-17  0.65702806D-18  0.16700619D-05  0.82831182D-18
END DATA
 TOTAL ENERGY =       -0.499948351510 THE VIRIAL(-V/T)=   2.00027948
