 TITLE
GAUSSIAN              1 MOL ORBITALS    114 PRIMITIVES        2 NUCLEI
  H    1    (CENTRE  1)   0.00000000  0.00000000  0.00000000  CHARGE =  1.0
  H    2    (CENTRE  2)   0.00000000  0.00000000 11.90527458  CHARGE =  0.0
CENTRE ASSIGNMENTS    1  1  1  1  1  1  1  1  1  1  1  1  1  1  1  1  1  1  1  1
CENTRE ASSIGNMENTS    1  1  1  1  1  1  1  1  1  1  1  1  1  1  1  1  1  1  1  1
CENTRE ASSIGNMENTS    1  1  1  1  1  1  1  1  1  1  1  1  1  1  1  1  1  2  2  2
CENTRE ASSIGNMENTS    2  2  2  2  2  2  2  2  2  2  2  2  2  2  2  2  2  2  2  2
CENTRE ASSIGNMENTS    2  2  2  2  2  2  2  2  2  2  2  2  2  2  2  2  2  2  2  2
CENTRE ASSIGNMENTS    2  2  2  2  2  2  2  2  2  2  2  2  2  2
TYPE ASSIGNMENTS      1  1  1  1  1  1  1  2  3  4  2  3  4  2  3  4  2  3  4  5
TYPE ASSIGNMENTS      6  7  8  9 10  5  6  7  8  9 10  5  6  7  8  9 10 11 12 13
TYPE ASSIGNMENTS     17 14 15 18 19 16 20 11 12 13 17 14 15 18 19 16 20  1  1  1
TYPE ASSIGNMENTS      1  1  1  1  2  3  4  2  3  4  2  3  4  2  3  4  5  6  7  8
TYPE ASSIGNMENTS      9 10  5  6  7  8  9 10  5  6  7  8  9 10 11 12 13 17 14 15
TYPE ASSIGNMENTS     18 19 16 20 11 12 13 17 14 15 18 19 16 20
EXPONENTS  0.8264000D+02 0.1241000D+02 0.2824000D+01 0.7977000D+00 0.2581000D+00
EXPONENTS  0.8989000D-01 0.2363000D-01 0.2292000D+01 0.2292000D+01 0.2292000D+01
EXPONENTS  0.8380000D+00 0.8380000D+00 0.8380000D+00 0.2920000D+00 0.2920000D+00
EXPONENTS  0.2920000D+00 0.8480000D-01 0.8480000D-01 0.8480000D-01 0.2062000D+01
EXPONENTS  0.2062000D+01 0.2062000D+01 0.2062000D+01 0.2062000D+01 0.2062000D+01
EXPONENTS  0.6620000D+00 0.6620000D+00 0.6620000D+00 0.6620000D+00 0.6620000D+00
EXPONENTS  0.6620000D+00 0.1900000D+00 0.1900000D+00 0.1900000D+00 0.1900000D+00
EXPONENTS  0.1900000D+00 0.1900000D+00 0.1397000D+01 0.1397000D+01 0.1397000D+01
EXPONENTS  0.1397000D+01 0.1397000D+01 0.1397000D+01 0.1397000D+01 0.1397000D+01
EXPONENTS  0.1397000D+01 0.1397000D+01 0.3600000D+00 0.3600000D+00 0.3600000D+00
EXPONENTS  0.3600000D+00 0.3600000D+00 0.3600000D+00 0.3600000D+00 0.3600000D+00
EXPONENTS  0.3600000D+00 0.3600000D+00 0.8264000D+02 0.1241000D+02 0.2824000D+01
EXPONENTS  0.7977000D+00 0.2581000D+00 0.8989000D-01 0.2363000D-01 0.2292000D+01
EXPONENTS  0.2292000D+01 0.2292000D+01 0.8380000D+00 0.8380000D+00 0.8380000D+00
EXPONENTS  0.2920000D+00 0.2920000D+00 0.2920000D+00 0.8480000D-01 0.8480000D-01
EXPONENTS  0.8480000D-01 0.2062000D+01 0.2062000D+01 0.2062000D+01 0.2062000D+01
EXPONENTS  0.2062000D+01 0.2062000D+01 0.6620000D+00 0.6620000D+00 0.6620000D+00
EXPONENTS  0.6620000D+00 0.6620000D+00 0.6620000D+00 0.1900000D+00 0.1900000D+00
EXPONENTS  0.1900000D+00 0.1900000D+00 0.1900000D+00 0.1900000D+00 0.1397000D+01
EXPONENTS  0.1397000D+01 0.1397000D+01 0.1397000D+01 0.1397000D+01 0.1397000D+01
EXPONENTS  0.1397000D+01 0.1397000D+01 0.1397000D+01 0.1397000D+01 0.3600000D+00
EXPONENTS  0.3600000D+00 0.3600000D+00 0.3600000D+00 0.3600000D+00 0.3600000D+00
EXPONENTS  0.3600000D+00 0.3600000D+00 0.3600000D+00 0.3600000D+00
MO    1     MO 0.0        OCC NO =    1.0000000  ORB. ENERGY =   -0.499948
  0.39212915D-01  0.72351008D-01  0.11742353D+00  0.15418545D+00  0.12889497D+00
  0.34160596D-01  0.17274484D-03  0.37142722D-16  0.36113002D-16  0.35602253D-05
 -0.27732613D-16  0.86793982D-17 -0.43499355D-05 -0.41070644D-16 -0.17047009D-16
  0.31782868D-05  0.15012148D-16  0.19353973D-17 -0.13945080D-05  0.28517835D-06
  0.28517835D-06 -0.57035669D-06  0.67785430D-16 -0.10072691D-15  0.43407861D-15
 -0.18786050D-06 -0.18786050D-06  0.37572101D-06  0.11820279D-16  0.79883516D-16
 -0.15861572D-15  0.70195379D-07  0.70195379D-07 -0.14039076D-06 -0.84121004D-18
 -0.91066542D-17  0.20963021D-16  0.75402976D-17 -0.15176831D-17  0.27713386D-07
 -0.49774297D-16 -0.42507333D-16 -0.41570080D-07  0.27153405D-16  0.47060382D-16
 -0.41570080D-07 -0.14260186D-16 -0.11889284D-17 -0.24374811D-17 -0.74173221D-08
 -0.52800584D-18  0.10681013D-16  0.11125983D-07  0.40947911D-17 -0.33685693D-17
  0.11125983D-07  0.71554284D-17 -0.50776906D-06 -0.93687510D-06 -0.15205203D-05
  0.44954048D-05 -0.36991635D-06 -0.15033293D-04  0.10248337D-04 -0.22795745D-16
  0.20855714D-16  0.49472623D-04 -0.33735851D-16 -0.92115916D-17 -0.60126019D-04
  0.17201745D-16 -0.14361959D-16  0.43369779D-04 -0.46449857D-17  0.48991942D-17
 -0.15592808D-04 -0.13786645D-04 -0.13786645D-04  0.27573289D-04  0.57138132D-15
  0.20929237D-14  0.29219333D-15  0.86929128D-05  0.86929128D-05 -0.17385826D-04
 -0.32813331D-16 -0.17365308D-15  0.25843060D-16 -0.29751185D-05 -0.29751185D-05
  0.59502370D-05  0.31411427D-18  0.21432183D-17 -0.69000868D-17 -0.49173951D-17
 -0.11158227D-16  0.47747885D-05  0.11191592D-16 -0.28591866D-17 -0.71621828D-05
  0.35605933D-17  0.36333869D-16 -0.71621828D-05  0.30157234D-16 -0.69031837D-18
  0.88189630D-18 -0.13889883D-05 -0.13181976D-17  0.88354011D-18  0.20834825D-05
  0.33891527D-17 -0.35292290D-17  0.20834825D-05 -0.25195110D-18
END DATA
 TOTAL ENERGY =       -0.499948357221 THE VIRIAL(-V/T)=   2.00027940
