 TITLE
GAUSSIAN              1 MOL ORBITALS    114 PRIMITIVES        2 NUCLEI
  H    1    (CENTRE  1)   0.00000000  0.00000000  0.00000000  CHARGE =  1.0
  H    2    (CENTRE  2)   0.00000000  0.00000000  1.13383567  CHARGE =  0.0
CENTRE ASSIGNMENTS    1  1  1  1  1  1  1  1  1  1  1  1  1  1  1  1  1  1  1  1
CENTRE ASSIGNMENTS    1  1  1  1  1  1  1  1  1  1  1  1  1  1  1  1  1  1  1  1
CENTRE ASSIGNMENTS    1  1  1  1  1  1  1  1  1  1  1  1  1  1  1  1  1  2  2  2
CENTRE ASSIGNMENTS    2  2  2  2  2  2  2  2  2  2  2  2  2  2  2  2  2  2  2  2
CENTRE ASSIGNMENTS    2  2  2  2  2  2  2  2  2  2  2  2  2  2  2  2  2  2  2  2
CENTRE ASSIGNMENTS    2  2  2  2  2  2  2  2  2  2  2  2  2  2
TYPE ASSIGNMENTS      1  1  1  1  1  1  1  2  3  4  2  3  4  2  3  4  2  3  4  5
TYPE ASSIGNMENTS      6  7  8  9 10  5  6  7  8  9 10  5  6  7  8  9 10 11 12 13
TYPE ASSIGNMENTS     17 14 15 18 19 16 20 11 12 13 17 14 15 18 19 16 20  1  1  1
TYPE ASSIGNMENTS      1  1  1  1  2  3  4  2  3  4  2  3  4  2  3  4  5  6  7  8
TYPE ASSIGNMENTS      9 10  5  6  7  8  9 10  5  6  7  8  9 10 11 12 13 17 14 15
TYPE ASSIGNMENTS     18 19 16 20 11 12 13 17 14 15 18 19 16 20
EXPONENTS  0.8264000D+02 0.1241000D+02 0.2824000D+01 0.7977000D+00 0.2581000D+00
EXPONENTS  0.8989000D-01 0.2363000D-01 0.2292000D+01 0.2292000D+01 0.2292000D+01
EXPONENTS  0.8380000D+00 0.8380000D+00 0.8380000D+00 0.2920000D+00 0.2920000D+00
EXPONENTS  0.2920000D+00 0.8480000D-01 0.8480000D-01 0.8480000D-01 0.2062000D+01
EXPONENTS  0.2062000D+01 0.2062000D+01 0.2062000D+01 0.2062000D+01 0.2062000D+01
EXPONENTS  0.6620000D+00 0.6620000D+00 0.6620000D+00 0.6620000D+00 0.6620000D+00
EXPONENTS  0.6620000D+00 0.1900000D+00 0.1900000D+00 0.1900000D+00 0.1900000D+00
EXPONENTS  0.1900000D+00 0.1900000D+00 0.1397000D+01 0.1397000D+01 0.1397000D+01
EXPONENTS  0.1397000D+01 0.1397000D+01 0.1397000D+01 0.1397000D+01 0.1397000D+01
EXPONENTS  0.1397000D+01 0.1397000D+01 0.3600000D+00 0.3600000D+00 0.3600000D+00
EXPONENTS  0.3600000D+00 0.3600000D+00 0.3600000D+00 0.3600000D+00 0.3600000D+00
EXPONENTS  0.3600000D+00 0.3600000D+00 0.8264000D+02 0.1241000D+02 0.2824000D+01
EXPONENTS  0.7977000D+00 0.2581000D+00 0.8989000D-01 0.2363000D-01 0.2292000D+01
EXPONENTS  0.2292000D+01 0.2292000D+01 0.8380000D+00 0.8380000D+00 0.8380000D+00
EXPONENTS  0.2920000D+00 0.2920000D+00 0.2920000D+00 0.8480000D-01 0.8480000D-01
EXPONENTS  0.8480000D-01 0.2062000D+01 0.2062000D+01 0.2062000D+01 0.2062000D+01
EXPONENTS  0.2062000D+01 0.2062000D+01 0.6620000D+00 0.6620000D+00 0.6620000D+00
EXPONENTS  0.6620000D+00 0.6620000D+00 0.6620000D+00 0.1900000D+00 0.1900000D+00
EXPONENTS  0.1900000D+00 0.1900000D+00 0.1900000D+00 0.1900000D+00 0.1397000D+01
EXPONENTS  0.1397000D+01 0.1397000D+01 0.1397000D+01 0.1397000D+01 0.1397000D+01
EXPONENTS  0.1397000D+01 0.1397000D+01 0.1397000D+01 0.1397000D+01 0.3600000D+00
EXPONENTS  0.3600000D+00 0.3600000D+00 0.3600000D+00 0.3600000D+00 0.3600000D+00
EXPONENTS  0.3600000D+00 0.3600000D+00 0.3600000D+00 0.3600000D+00
MO    1     MO 0.0        OCC NO =    1.0000000  ORB. ENERGY =   -0.499950
  0.39229408D-01  0.72381439D-01  0.11747292D+00  0.15181043D+00  0.10804029D+00
  0.45924538D-01  0.32507126D-03 -0.43967235D-15  0.15097534D-15 -0.20996876D-02
  0.60831292D-14 -0.72388939D-14 -0.54007310D-02  0.26335028D-14 -0.55598709D-14
 -0.92654335D-02 -0.35875659D-16 -0.42006377D-15  0.10254427D-02  0.16865978D-02
  0.16865978D-02 -0.33731956D-02  0.28408771D-15  0.38315941D-14 -0.59613953D-14
  0.11456719D-02  0.11456719D-02 -0.22913438D-02 -0.46354046D-16  0.58724902D-14
 -0.79917521D-14  0.86092069D-04  0.86092069D-04 -0.17218414D-03  0.15029933D-17
  0.21295850D-15 -0.80873724D-15 -0.10947357D-14  0.15660548D-14 -0.13348028D-02
 -0.11918487D-14  0.15107504D-14  0.20022043D-02  0.44760558D-14 -0.62089147D-14
  0.20022043D-02  0.87176700D-15 -0.57994879D-16  0.14178722D-15  0.85587578D-04
 -0.82815618D-16  0.11195472D-15 -0.12838137D-03  0.25680026D-15 -0.53731637D-15
 -0.12838137D-03 -0.34721721D-16  0.19446041D-04  0.35879523D-04  0.58231396D-04
  0.65836865D-02  0.21171460D-01 -0.12122017D-01 -0.12073598D-03  0.50698610D-15
 -0.31168166D-15 -0.34665968D-02 -0.60455227D-14  0.75635739D-14 -0.38732933D-02
 -0.26993211D-14  0.57215260D-14 -0.53123439D-02  0.25640501D-16  0.40893196D-15
  0.11032167D-02 -0.22321869D-02 -0.22321869D-02  0.44643738D-02 -0.69913748D-15
  0.36717769D-14 -0.67251338D-14  0.31707679D-03  0.31707679D-03 -0.63415359D-03
  0.48638465D-16  0.56897115D-14 -0.75282046D-14  0.70699078D-04  0.70699078D-04
 -0.14139816D-03  0.28505844D-16  0.22827713D-15 -0.62350408D-15  0.12058011D-14
 -0.14700929D-14 -0.67576843D-03  0.99217341D-15 -0.16156735D-14  0.10136527D-02
 -0.46095767D-14  0.60259521D-14  0.10136527D-02  0.60548279D-15  0.48458225D-16
 -0.93253283D-16  0.26005015D-03  0.85451590D-16 -0.81768165D-16 -0.39007522D-03
 -0.23082627D-15  0.36152801D-15 -0.39007522D-03 -0.12874964D-16
END DATA
 TOTAL ENERGY =       -0.499950160838 THE VIRIAL(-V/T)=   2.00027648
