 TITLE
GAUSSIAN              1 MOL ORBITALS    114 PRIMITIVES        2 NUCLEI
  H    1    (CENTRE  1)   0.00000000  0.00000000  0.00000000  CHARGE =  1.0
  H    2    (CENTRE  2)   0.00000000  0.00000000  1.88972612  CHARGE =  0.0
CENTRE ASSIGNMENTS    1  1  1  1  1  1  1  1  1  1  1  1  1  1  1  1  1  1  1  1
CENTRE ASSIGNMENTS    1  1  1  1  1  1  1  1  1  1  1  1  1  1  1  1  1  1  1  1
CENTRE ASSIGNMENTS    1  1  1  1  1  1  1  1  1  1  1  1  1  1  1  1  1  2  2  2
CENTRE ASSIGNMENTS    2  2  2  2  2  2  2  2  2  2  2  2  2  2  2  2  2  2  2  2
CENTRE ASSIGNMENTS    2  2  2  2  2  2  2  2  2  2  2  2  2  2  2  2  2  2  2  2
CENTRE ASSIGNMENTS    2  2  2  2  2  2  2  2  2  2  2  2  2  2
TYPE ASSIGNMENTS      1  1  1  1  1  1  1  2  3  4  2  3  4  2  3  4  2  3  4  5
TYPE ASSIGNMENTS      6  7  8  9 10  5  6  7  8  9 10  5  6  7  8  9 10 11 12 13
TYPE ASSIGNMENTS     17 14 15 18 19 16 20 11 12 13 17 14 15 18 19 16 20  1  1  1
TYPE ASSIGNMENTS      1  1  1  1  2  3  4  2  3  4  2  3  4  2  3  4  5  6  7  8
TYPE ASSIGNMENTS      9 10  5  6  7  8  9 10  5  6  7  8  9 10 11 12 13 17 14 15
TYPE ASSIGNMENTS     18 19 16 20 11 12 13 17 14 15 18 19 16 20
EXPONENTS  0.8264000D+02 0.1241000D+02 0.2824000D+01 0.7977000D+00 0.2581000D+00
EXPONENTS  0.8989000D-01 0.2363000D-01 0.2292000D+01 0.2292000D+01 0.2292000D+01
EXPONENTS  0.8380000D+00 0.8380000D+00 0.8380000D+00 0.2920000D+00 0.2920000D+00
EXPONENTS  0.2920000D+00 0.8480000D-01 0.8480000D-01 0.8480000D-01 0.2062000D+01
EXPONENTS  0.2062000D+01 0.2062000D+01 0.2062000D+01 0.2062000D+01 0.2062000D+01
EXPONENTS  0.6620000D+00 0.6620000D+00 0.6620000D+00 0.6620000D+00 0.6620000D+00
EXPONENTS  0.6620000D+00 0.1900000D+00 0.1900000D+00 0.1900000D+00 0.1900000D+00
EXPONENTS  0.1900000D+00 0.1900000D+00 0.1397000D+01 0.1397000D+01 0.1397000D+01
EXPONENTS  0.1397000D+01 0.1397000D+01 0.1397000D+01 0.1397000D+01 0.1397000D+01
EXPONENTS  0.1397000D+01 0.1397000D+01 0.3600000D+00 0.3600000D+00 0.3600000D+00
EXPONENTS  0.3600000D+00 0.3600000D+00 0.3600000D+00 0.3600000D+00 0.3600000D+00
EXPONENTS  0.3600000D+00 0.3600000D+00 0.8264000D+02 0.1241000D+02 0.2824000D+01
EXPONENTS  0.7977000D+00 0.2581000D+00 0.8989000D-01 0.2363000D-01 0.2292000D+01
EXPONENTS  0.2292000D+01 0.2292000D+01 0.8380000D+00 0.8380000D+00 0.8380000D+00
EXPONENTS  0.2920000D+00 0.2920000D+00 0.2920000D+00 0.8480000D-01 0.8480000D-01
EXPONENTS  0.8480000D-01 0.2062000D+01 0.2062000D+01 0.2062000D+01 0.2062000D+01
EXPONENTS  0.2062000D+01 0.2062000D+01 0.6620000D+00 0.6620000D+00 0.6620000D+00
EXPONENTS  0.6620000D+00 0.6620000D+00 0.6620000D+00 0.1900000D+00 0.1900000D+00
EXPONENTS  0.1900000D+00 0.1900000D+00 0.1900000D+00 0.1900000D+00 0.1397000D+01
EXPONENTS  0.1397000D+01 0.1397000D+01 0.1397000D+01 0.1397000D+01 0.1397000D+01
EXPONENTS  0.1397000D+01 0.1397000D+01 0.1397000D+01 0.1397000D+01 0.3600000D+00
EXPONENTS  0.3600000D+00 0.3600000D+00 0.3600000D+00 0.3600000D+00 0.3600000D+00
EXPONENTS  0.3600000D+00 0.3600000D+00 0.3600000D+00 0.3600000D+00
MO    1     MO 0.0        OCC NO =    1.0000000  ORB. ENERGY =   -0.499951
  0.39188014D-01  0.72305064D-01  0.11734896D+00  0.15446432D+00  0.13229627D+00
  0.40546057D-01  0.34751453D-03  0.11366690D-15 -0.93742545D-15 -0.10813333D-03
 -0.42129378D-15  0.10047177D-14  0.26096588D-03  0.63407951D-15 -0.20366565D-14
  0.16836973D-02  0.54671305D-15 -0.64198326D-16  0.98419598D-03 -0.40698862D-04
 -0.40698862D-04  0.81397723D-04  0.10465815D-15 -0.85136467D-15  0.32407113D-14
 -0.37710890D-04 -0.37710890D-04  0.75421780D-04 -0.27840690D-16 -0.17629894D-15
 -0.16976964D-14 -0.30704255D-04 -0.30704255D-04  0.61408510D-04 -0.27625310D-15
  0.70489261D-15 -0.50397842D-15  0.33608456D-15 -0.24565882D-15  0.14091413D-03
  0.23833997D-15 -0.21584539D-15 -0.21137119D-03 -0.12465936D-14  0.95282184D-15
 -0.21137119D-03  0.88040469D-15 -0.98073479D-16  0.11319673D-15 -0.62266348D-04
 -0.87958563D-16  0.10517851D-15  0.93399522D-04  0.38217900D-15 -0.44476870D-15
  0.93399522D-04 -0.36743722D-15  0.43358494D-04  0.79999938D-04  0.12983751D-03
  0.19834557D-03 -0.19796667D-02 -0.68671144D-02 -0.13296266D-03 -0.18862739D-15
  0.91843758D-15  0.13374440D-02  0.23232022D-15 -0.49506434D-15 -0.14967577D-02
 -0.12635462D-14  0.19646056D-14  0.30281558D-02 -0.49579719D-15  0.89764739D-16
  0.11308484D-02  0.46189553D-03  0.46189553D-03 -0.92379107D-03 -0.29224941D-15
 -0.13537395D-14  0.29974586D-14  0.11937951D-03  0.11937951D-03 -0.23875903D-03
  0.18326511D-15  0.12634731D-15 -0.16880235D-14  0.18594644D-03  0.18594644D-03
 -0.37189287D-03  0.22909034D-15  0.37725745D-15 -0.41623773D-15 -0.17480562D-15
  0.24078528D-15  0.33606557D-03  0.66495356D-16  0.20492579D-15 -0.50409836D-03
  0.45792152D-15 -0.92728163D-15 -0.50409836D-03  0.47206675D-15 -0.24293266D-16
 -0.65790587D-16  0.27489559D-04 -0.63594750D-16 -0.70614155D-16 -0.41234339D-04
  0.13647455D-15  0.26798592D-15 -0.41234339D-04 -0.37524909D-15
END DATA
 TOTAL ENERGY =       -0.499950818537 THE VIRIAL(-V/T)=   2.00027485
