 TITLE
GAUSSIAN              1 MOL ORBITALS    114 PRIMITIVES        2 NUCLEI
  H    1    (CENTRE  1)   0.00000000  0.00000000  0.00000000  CHARGE =  1.0
  H    2    (CENTRE  2)   0.00000000  0.00000000 11.14938413  CHARGE =  0.0
CENTRE ASSIGNMENTS    1  1  1  1  1  1  1  1  1  1  1  1  1  1  1  1  1  1  1  1
CENTRE ASSIGNMENTS    1  1  1  1  1  1  1  1  1  1  1  1  1  1  1  1  1  1  1  1
CENTRE ASSIGNMENTS    1  1  1  1  1  1  1  1  1  1  1  1  1  1  1  1  1  2  2  2
CENTRE ASSIGNMENTS    2  2  2  2  2  2  2  2  2  2  2  2  2  2  2  2  2  2  2  2
CENTRE ASSIGNMENTS    2  2  2  2  2  2  2  2  2  2  2  2  2  2  2  2  2  2  2  2
CENTRE ASSIGNMENTS    2  2  2  2  2  2  2  2  2  2  2  2  2  2
TYPE ASSIGNMENTS      1  1  1  1  1  1  1  2  3  4  2  3  4  2  3  4  2  3  4  5
TYPE ASSIGNMENTS      6  7  8  9 10  5  6  7  8  9 10  5  6  7  8  9 10 11 12 13
TYPE ASSIGNMENTS     17 14 15 18 19 16 20 11 12 13 17 14 15 18 19 16 20  1  1  1
TYPE ASSIGNMENTS      1  1  1  1  2  3  4  2  3  4  2  3  4  2  3  4  5  6  7  8
TYPE ASSIGNMENTS      9 10  5  6  7  8  9 10  5  6  7  8  9 10 11 12 13 17 14 15
TYPE ASSIGNMENTS     18 19 16 20 11 12 13 17 14 15 18 19 16 20
EXPONENTS  0.8264000D+02 0.1241000D+02 0.2824000D+01 0.7977000D+00 0.2581000D+00
EXPONENTS  0.8989000D-01 0.2363000D-01 0.2292000D+01 0.2292000D+01 0.2292000D+01
EXPONENTS  0.8380000D+00 0.8380000D+00 0.8380000D+00 0.2920000D+00 0.2920000D+00
EXPONENTS  0.2920000D+00 0.8480000D-01 0.8480000D-01 0.8480000D-01 0.2062000D+01
EXPONENTS  0.2062000D+01 0.2062000D+01 0.2062000D+01 0.2062000D+01 0.2062000D+01
EXPONENTS  0.6620000D+00 0.6620000D+00 0.6620000D+00 0.6620000D+00 0.6620000D+00
EXPONENTS  0.6620000D+00 0.1900000D+00 0.1900000D+00 0.1900000D+00 0.1900000D+00
EXPONENTS  0.1900000D+00 0.1900000D+00 0.1397000D+01 0.1397000D+01 0.1397000D+01
EXPONENTS  0.1397000D+01 0.1397000D+01 0.1397000D+01 0.1397000D+01 0.1397000D+01
EXPONENTS  0.1397000D+01 0.1397000D+01 0.3600000D+00 0.3600000D+00 0.3600000D+00
EXPONENTS  0.3600000D+00 0.3600000D+00 0.3600000D+00 0.3600000D+00 0.3600000D+00
EXPONENTS  0.3600000D+00 0.3600000D+00 0.8264000D+02 0.1241000D+02 0.2824000D+01
EXPONENTS  0.7977000D+00 0.2581000D+00 0.8989000D-01 0.2363000D-01 0.2292000D+01
EXPONENTS  0.2292000D+01 0.2292000D+01 0.8380000D+00 0.8380000D+00 0.8380000D+00
EXPONENTS  0.2920000D+00 0.2920000D+00 0.2920000D+00 0.8480000D-01 0.8480000D-01
EXPONENTS  0.8480000D-01 0.2062000D+01 0.2062000D+01 0.2062000D+01 0.2062000D+01
EXPONENTS  0.2062000D+01 0.2062000D+01 0.6620000D+00 0.6620000D+00 0.6620000D+00
EXPONENTS  0.6620000D+00 0.6620000D+00 0.6620000D+00 0.1900000D+00 0.1900000D+00
EXPONENTS  0.1900000D+00 0.1900000D+00 0.1900000D+00 0.1900000D+00 0.1397000D+01
EXPONENTS  0.1397000D+01 0.1397000D+01 0.1397000D+01 0.1397000D+01 0.1397000D+01
EXPONENTS  0.1397000D+01 0.1397000D+01 0.1397000D+01 0.1397000D+01 0.3600000D+00
EXPONENTS  0.3600000D+00 0.3600000D+00 0.3600000D+00 0.3600000D+00 0.3600000D+00
EXPONENTS  0.3600000D+00 0.3600000D+00 0.3600000D+00 0.3600000D+00
MO    1     MO 0.0        OCC NO =    1.0000000  ORB. ENERGY =   -0.499948
  0.39212643D-01  0.72350508D-01  0.11742272D+00  0.15418855D+00  0.12888963D+00
  0.34165729D-01  0.17062046D-03  0.39691302D-15  0.13910578D-16  0.57711094D-05
 -0.35537238D-15  0.56987970D-17 -0.70334264D-05  0.83715365D-16 -0.10308160D-16
  0.50793088D-05  0.54551461D-17  0.68344289D-17 -0.21481145D-05  0.35358408D-06
  0.35358408D-06 -0.70716816D-06  0.21097576D-15  0.16564279D-15  0.24296388D-15
 -0.23196300D-06 -0.23196300D-06  0.46392600D-06  0.46281615D-17 -0.56491099D-16
 -0.41704864D-16  0.80486597D-07  0.80486597D-07 -0.16097319D-06  0.32076214D-17
  0.88167140D-17 -0.17065107D-17  0.99789853D-18 -0.67283944D-17  0.11586713D-07
 -0.47776172D-16  0.22748080D-16 -0.17380070D-07  0.44782476D-16 -0.25628967D-17
 -0.17380070D-07 -0.67338481D-16 -0.33616970D-19 -0.97502675D-18 -0.44080494D-09
  0.28165069D-17 -0.51870316D-17  0.66120741D-09 -0.27156560D-17  0.81121119D-17
  0.66120741D-09  0.57928571D-17 -0.17381659D-05 -0.32070570D-05 -0.52049579D-05
  0.18991506D-04 -0.25229615D-04  0.16088752D-05  0.90848579D-05 -0.18995431D-15
  0.14973705D-15  0.48782590D-04  0.83445737D-16 -0.12074157D-16 -0.60922695D-04
 -0.31838856D-16 -0.17684518D-17  0.47995306D-04  0.78283495D-17  0.13214673D-17
 -0.21291377D-04 -0.22219166D-04 -0.22219166D-04  0.44438333D-04  0.31827590D-15
  0.60126965D-15 -0.15931506D-14  0.14261898D-04  0.14261898D-04 -0.28523795D-04
 -0.42841377D-16 -0.75978163D-17  0.11101148D-15 -0.52893689D-05 -0.52893689D-05
  0.10578738D-04  0.48889125D-17 -0.36505573D-17 -0.25181585D-17 -0.12357024D-17
 -0.37792701D-17  0.90923044D-05  0.15955340D-16  0.14507898D-16 -0.13638457D-04
 -0.12248233D-16 -0.31700878D-17 -0.13638457D-04 -0.18408989D-16  0.12297128D-17
  0.11914513D-17 -0.27292761D-05  0.53738051D-18  0.97872707D-18  0.40939142D-05
 -0.42265190D-17 -0.45530809D-17  0.40939142D-05  0.16490091D-17
END DATA
 TOTAL ENERGY =       -0.499948385849 THE VIRIAL(-V/T)=   2.00027945
