 TITLE
GAUSSIAN              1 MOL ORBITALS    114 PRIMITIVES        2 NUCLEI
  H    1    (CENTRE  1)   0.00000000  0.00000000  0.00000000  CHARGE =  1.0
  H    2    (CENTRE  2)   0.00000000  0.00000000  9.07068540  CHARGE =  0.0
CENTRE ASSIGNMENTS    1  1  1  1  1  1  1  1  1  1  1  1  1  1  1  1  1  1  1  1
CENTRE ASSIGNMENTS    1  1  1  1  1  1  1  1  1  1  1  1  1  1  1  1  1  1  1  1
CENTRE ASSIGNMENTS    1  1  1  1  1  1  1  1  1  1  1  1  1  1  1  1  1  2  2  2
CENTRE ASSIGNMENTS    2  2  2  2  2  2  2  2  2  2  2  2  2  2  2  2  2  2  2  2
CENTRE ASSIGNMENTS    2  2  2  2  2  2  2  2  2  2  2  2  2  2  2  2  2  2  2  2
CENTRE ASSIGNMENTS    2  2  2  2  2  2  2  2  2  2  2  2  2  2
TYPE ASSIGNMENTS      1  1  1  1  1  1  1  2  3  4  2  3  4  2  3  4  2  3  4  5
TYPE ASSIGNMENTS      6  7  8  9 10  5  6  7  8  9 10  5  6  7  8  9 10 11 12 13
TYPE ASSIGNMENTS     17 14 15 18 19 16 20 11 12 13 17 14 15 18 19 16 20  1  1  1
TYPE ASSIGNMENTS      1  1  1  1  2  3  4  2  3  4  2  3  4  2  3  4  5  6  7  8
TYPE ASSIGNMENTS      9 10  5  6  7  8  9 10  5  6  7  8  9 10 11 12 13 17 14 15
TYPE ASSIGNMENTS     18 19 16 20 11 12 13 17 14 15 18 19 16 20
EXPONENTS  0.8264000D+02 0.1241000D+02 0.2824000D+01 0.7977000D+00 0.2581000D+00
EXPONENTS  0.8989000D-01 0.2363000D-01 0.2292000D+01 0.2292000D+01 0.2292000D+01
EXPONENTS  0.8380000D+00 0.8380000D+00 0.8380000D+00 0.2920000D+00 0.2920000D+00
EXPONENTS  0.2920000D+00 0.8480000D-01 0.8480000D-01 0.8480000D-01 0.2062000D+01
EXPONENTS  0.2062000D+01 0.2062000D+01 0.2062000D+01 0.2062000D+01 0.2062000D+01
EXPONENTS  0.6620000D+00 0.6620000D+00 0.6620000D+00 0.6620000D+00 0.6620000D+00
EXPONENTS  0.6620000D+00 0.1900000D+00 0.1900000D+00 0.1900000D+00 0.1900000D+00
EXPONENTS  0.1900000D+00 0.1900000D+00 0.1397000D+01 0.1397000D+01 0.1397000D+01
EXPONENTS  0.1397000D+01 0.1397000D+01 0.1397000D+01 0.1397000D+01 0.1397000D+01
EXPONENTS  0.1397000D+01 0.1397000D+01 0.3600000D+00 0.3600000D+00 0.3600000D+00
EXPONENTS  0.3600000D+00 0.3600000D+00 0.3600000D+00 0.3600000D+00 0.3600000D+00
EXPONENTS  0.3600000D+00 0.3600000D+00 0.8264000D+02 0.1241000D+02 0.2824000D+01
EXPONENTS  0.7977000D+00 0.2581000D+00 0.8989000D-01 0.2363000D-01 0.2292000D+01
EXPONENTS  0.2292000D+01 0.2292000D+01 0.8380000D+00 0.8380000D+00 0.8380000D+00
EXPONENTS  0.2920000D+00 0.2920000D+00 0.2920000D+00 0.8480000D-01 0.8480000D-01
EXPONENTS  0.8480000D-01 0.2062000D+01 0.2062000D+01 0.2062000D+01 0.2062000D+01
EXPONENTS  0.2062000D+01 0.2062000D+01 0.6620000D+00 0.6620000D+00 0.6620000D+00
EXPONENTS  0.6620000D+00 0.6620000D+00 0.6620000D+00 0.1900000D+00 0.1900000D+00
EXPONENTS  0.1900000D+00 0.1900000D+00 0.1900000D+00 0.1900000D+00 0.1397000D+01
EXPONENTS  0.1397000D+01 0.1397000D+01 0.1397000D+01 0.1397000D+01 0.1397000D+01
EXPONENTS  0.1397000D+01 0.1397000D+01 0.1397000D+01 0.1397000D+01 0.3600000D+00
EXPONENTS  0.3600000D+00 0.3600000D+00 0.3600000D+00 0.3600000D+00 0.3600000D+00
EXPONENTS  0.3600000D+00 0.3600000D+00 0.3600000D+00 0.3600000D+00
MO    1     MO 0.0        OCC NO =    1.0000000  ORB. ENERGY =   -0.499948
  0.39212658D-01  0.72350534D-01  0.11742276D+00  0.15418836D+00  0.12888976D+00
  0.34166248D-01  0.16949718D-03  0.33729270D-16 -0.20535539D-15  0.80957046D-05
 -0.97635580D-16  0.16148281D-15 -0.99329647D-05  0.97751881D-16 -0.12602206D-15
  0.73570651D-05 -0.21143808D-16  0.23848126D-16 -0.33102549D-05  0.90229838D-06
  0.90229838D-06 -0.18045968D-05 -0.35863776D-17  0.49436489D-16  0.72034812D-16
 -0.59252545D-06 -0.59252545D-06  0.11850509D-05 -0.21765605D-16 -0.93491161D-17
 -0.28903426D-16  0.22179683D-06  0.22179683D-06 -0.44359366D-06  0.83020910D-17
  0.11395383D-16  0.99781311D-17  0.27069253D-16  0.46967617D-16  0.20744405D-06
 -0.24492468D-16 -0.48075910D-17 -0.31116608D-06 -0.56715291D-16 -0.13609526D-15
 -0.31116608D-06 -0.11027870D-15 -0.93181837D-18 -0.39988879D-17 -0.60746508D-07
 -0.86892447D-17  0.65219626D-17  0.91119762D-07  0.11484700D-16  0.54747010D-17
  0.91119762D-07  0.24115785D-16  0.26840751D-05  0.49523363D-05  0.80374941D-05
 -0.26370032D-04  0.16468250D-04  0.13603577D-04  0.71411083D-05 -0.25017695D-15
  0.13100235D-15 -0.63833596D-04  0.19658697D-15 -0.11646584D-15  0.78394380D-04
 -0.98095397D-16  0.48698467D-16 -0.52173960D-04  0.21891932D-16 -0.71059153D-17
 -0.52064221D-05  0.28113530D-04  0.28113530D-04 -0.56227060D-04 -0.33421816D-15
 -0.94229994D-16  0.18610882D-14 -0.16613906D-04 -0.16613906D-04  0.33227811D-04
  0.48229584D-16 -0.12823228D-16 -0.16618786D-15  0.25201172D-05  0.25201172D-05
 -0.50402344D-05 -0.11444928D-17 -0.14765237D-17  0.87474086D-18  0.21873489D-17
 -0.88809148D-17 -0.21525041D-04  0.86828935D-17  0.13209138D-16  0.32287562D-04
 -0.15244940D-16  0.13433606D-16  0.32287562D-04 -0.52247227D-16  0.11132164D-17
 -0.23599200D-18  0.55568437D-05 -0.25672614D-18 -0.34043680D-18 -0.83352656D-05
 -0.30829231D-17  0.10484128D-17 -0.83352656D-05  0.19894692D-17
END DATA
 TOTAL ENERGY =       -0.499948392065 THE VIRIAL(-V/T)=   2.00027969
