 TITLE
GAUSSIAN              1 MOL ORBITALS    114 PRIMITIVES        2 NUCLEI
  H    1    (CENTRE  1)   0.00000000  0.00000000  0.00000000  CHARGE =  1.0
  H    2    (CENTRE  2)   0.00000000  0.00000000  3.59047964  CHARGE =  0.0
CENTRE ASSIGNMENTS    1  1  1  1  1  1  1  1  1  1  1  1  1  1  1  1  1  1  1  1
CENTRE ASSIGNMENTS    1  1  1  1  1  1  1  1  1  1  1  1  1  1  1  1  1  1  1  1
CENTRE ASSIGNMENTS    1  1  1  1  1  1  1  1  1  1  1  1  1  1  1  1  1  2  2  2
CENTRE ASSIGNMENTS    2  2  2  2  2  2  2  2  2  2  2  2  2  2  2  2  2  2  2  2
CENTRE ASSIGNMENTS    2  2  2  2  2  2  2  2  2  2  2  2  2  2  2  2  2  2  2  2
CENTRE ASSIGNMENTS    2  2  2  2  2  2  2  2  2  2  2  2  2  2
TYPE ASSIGNMENTS      1  1  1  1  1  1  1  2  3  4  2  3  4  2  3  4  2  3  4  5
TYPE ASSIGNMENTS      6  7  8  9 10  5  6  7  8  9 10  5  6  7  8  9 10 11 12 13
TYPE ASSIGNMENTS     17 14 15 18 19 16 20 11 12 13 17 14 15 18 19 16 20  1  1  1
TYPE ASSIGNMENTS      1  1  1  1  2  3  4  2  3  4  2  3  4  2  3  4  5  6  7  8
TYPE ASSIGNMENTS      9 10  5  6  7  8  9 10  5  6  7  8  9 10 11 12 13 17 14 15
TYPE ASSIGNMENTS     18 19 16 20 11 12 13 17 14 15 18 19 16 20
EXPONENTS  0.8264000D+02 0.1241000D+02 0.2824000D+01 0.7977000D+00 0.2581000D+00
EXPONENTS  0.8989000D-01 0.2363000D-01 0.2292000D+01 0.2292000D+01 0.2292000D+01
EXPONENTS  0.8380000D+00 0.8380000D+00 0.8380000D+00 0.2920000D+00 0.2920000D+00
EXPONENTS  0.2920000D+00 0.8480000D-01 0.8480000D-01 0.8480000D-01 0.2062000D+01
EXPONENTS  0.2062000D+01 0.2062000D+01 0.2062000D+01 0.2062000D+01 0.2062000D+01
EXPONENTS  0.6620000D+00 0.6620000D+00 0.6620000D+00 0.6620000D+00 0.6620000D+00
EXPONENTS  0.6620000D+00 0.1900000D+00 0.1900000D+00 0.1900000D+00 0.1900000D+00
EXPONENTS  0.1900000D+00 0.1900000D+00 0.1397000D+01 0.1397000D+01 0.1397000D+01
EXPONENTS  0.1397000D+01 0.1397000D+01 0.1397000D+01 0.1397000D+01 0.1397000D+01
EXPONENTS  0.1397000D+01 0.1397000D+01 0.3600000D+00 0.3600000D+00 0.3600000D+00
EXPONENTS  0.3600000D+00 0.3600000D+00 0.3600000D+00 0.3600000D+00 0.3600000D+00
EXPONENTS  0.3600000D+00 0.3600000D+00 0.8264000D+02 0.1241000D+02 0.2824000D+01
EXPONENTS  0.7977000D+00 0.2581000D+00 0.8989000D-01 0.2363000D-01 0.2292000D+01
EXPONENTS  0.2292000D+01 0.2292000D+01 0.8380000D+00 0.8380000D+00 0.8380000D+00
EXPONENTS  0.2920000D+00 0.2920000D+00 0.2920000D+00 0.8480000D-01 0.8480000D-01
EXPONENTS  0.8480000D-01 0.2062000D+01 0.2062000D+01 0.2062000D+01 0.2062000D+01
EXPONENTS  0.2062000D+01 0.2062000D+01 0.6620000D+00 0.6620000D+00 0.6620000D+00
EXPONENTS  0.6620000D+00 0.6620000D+00 0.6620000D+00 0.1900000D+00 0.1900000D+00
EXPONENTS  0.1900000D+00 0.1900000D+00 0.1900000D+00 0.1900000D+00 0.1397000D+01
EXPONENTS  0.1397000D+01 0.1397000D+01 0.1397000D+01 0.1397000D+01 0.1397000D+01
EXPONENTS  0.1397000D+01 0.1397000D+01 0.1397000D+01 0.1397000D+01 0.3600000D+00
EXPONENTS  0.3600000D+00 0.3600000D+00 0.3600000D+00 0.3600000D+00 0.3600000D+00
EXPONENTS  0.3600000D+00 0.3600000D+00 0.3600000D+00 0.3600000D+00
MO    1     MO 0.0        OCC NO =    1.0000000  ORB. ENERGY =   -0.499950
  0.39208957D-01  0.72343706D-01  0.11741168D+00  0.15420951D+00  0.12877030D+00
  0.35094021D-01  0.22004832D-03 -0.19612764D-15  0.95055226D-16  0.37754507D-04
  0.22721355D-15 -0.49463060D-17 -0.99414069D-04 -0.12802848D-15 -0.32986198D-16
  0.21337521D-03 -0.34240322D-16 -0.88751017D-16  0.31453224D-03  0.24200634D-04
  0.24200634D-04 -0.48401267D-04  0.29975978D-15 -0.34518920D-15 -0.37438653D-15
 -0.13645257D-04 -0.13645257D-04  0.27290515D-04 -0.17744352D-15  0.42769947D-16
  0.29564154D-15 -0.40515611D-04 -0.40515611D-04  0.81031222D-04  0.56070326D-16
 -0.11490162D-15 -0.17955852D-15 -0.55713905D-16 -0.11148745D-15  0.56124884D-05
  0.12197834D-15  0.50490253D-16 -0.84187326D-05  0.45163373D-16  0.28397210D-15
 -0.84187326D-05 -0.22699203D-15  0.90311680D-18  0.23060147D-16  0.15740758D-04
  0.13281025D-16  0.16944342D-16 -0.23611137D-04 -0.15990375D-16 -0.86124784D-16
 -0.23611137D-04 -0.25820469D-16  0.11309288D-04  0.20866553D-04  0.33865794D-04
  0.22296960D-04  0.30079380D-03 -0.10769959D-02 -0.16186555D-04  0.40889950D-16
  0.19845673D-15 -0.14566208D-03  0.12993831D-15 -0.10093528D-16  0.21655351D-03
 -0.80117223D-16  0.17903967D-16 -0.32721950D-04  0.70993996D-16  0.71029841D-16
  0.34548912D-03  0.14295991D-04  0.14295991D-04 -0.28591982D-04 -0.10321181D-14
  0.30954524D-17 -0.14255166D-14  0.11360558D-03  0.11360558D-03 -0.22721117D-03
  0.34272799D-16  0.14278495D-15  0.32813172D-15  0.37142314D-04  0.37142314D-04
 -0.74284627D-04 -0.12263388D-16 -0.10842978D-15 -0.16320733D-15  0.39105482D-16
  0.29165170D-16 -0.11177756D-03  0.56884242D-16  0.14220565D-15  0.16766635D-03
 -0.17420069D-15 -0.22970116D-15  0.16766635D-03 -0.71033095D-16 -0.17786189D-16
 -0.31355331D-16  0.69318058D-04 -0.85161671D-17 -0.15816438D-16 -0.10397709D-03
  0.61874734D-16  0.10988243D-15 -0.10397709D-03 -0.32461282D-17
END DATA
 TOTAL ENERGY =       -0.499949697907 THE VIRIAL(-V/T)=   2.00027102
