 TITLE
GAUSSIAN              1 MOL ORBITALS    114 PRIMITIVES        2 NUCLEI
  H    1    (CENTRE  1)   0.00000000  0.00000000  0.00000000  CHARGE =  1.0
  H    2    (CENTRE  2)   0.00000000  0.00000000  7.18095927  CHARGE =  0.0
CENTRE ASSIGNMENTS    1  1  1  1  1  1  1  1  1  1  1  1  1  1  1  1  1  1  1  1
CENTRE ASSIGNMENTS    1  1  1  1  1  1  1  1  1  1  1  1  1  1  1  1  1  1  1  1
CENTRE ASSIGNMENTS    1  1  1  1  1  1  1  1  1  1  1  1  1  1  1  1  1  2  2  2
CENTRE ASSIGNMENTS    2  2  2  2  2  2  2  2  2  2  2  2  2  2  2  2  2  2  2  2
CENTRE ASSIGNMENTS    2  2  2  2  2  2  2  2  2  2  2  2  2  2  2  2  2  2  2  2
CENTRE ASSIGNMENTS    2  2  2  2  2  2  2  2  2  2  2  2  2  2
TYPE ASSIGNMENTS      1  1  1  1  1  1  1  2  3  4  2  3  4  2  3  4  2  3  4  5
TYPE ASSIGNMENTS      6  7  8  9 10  5  6  7  8  9 10  5  6  7  8  9 10 11 12 13
TYPE ASSIGNMENTS     17 14 15 18 19 16 20 11 12 13 17 14 15 18 19 16 20  1  1  1
TYPE ASSIGNMENTS      1  1  1  1  2  3  4  2  3  4  2  3  4  2  3  4  5  6  7  8
TYPE ASSIGNMENTS      9 10  5  6  7  8  9 10  5  6  7  8  9 10 11 12 13 17 14 15
TYPE ASSIGNMENTS     18 19 16 20 11 12 13 17 14 15 18 19 16 20
EXPONENTS  0.8264000D+02 0.1241000D+02 0.2824000D+01 0.7977000D+00 0.2581000D+00
EXPONENTS  0.8989000D-01 0.2363000D-01 0.2292000D+01 0.2292000D+01 0.2292000D+01
EXPONENTS  0.8380000D+00 0.8380000D+00 0.8380000D+00 0.2920000D+00 0.2920000D+00
EXPONENTS  0.2920000D+00 0.8480000D-01 0.8480000D-01 0.8480000D-01 0.2062000D+01
EXPONENTS  0.2062000D+01 0.2062000D+01 0.2062000D+01 0.2062000D+01 0.2062000D+01
EXPONENTS  0.6620000D+00 0.6620000D+00 0.6620000D+00 0.6620000D+00 0.6620000D+00
EXPONENTS  0.6620000D+00 0.1900000D+00 0.1900000D+00 0.1900000D+00 0.1900000D+00
EXPONENTS  0.1900000D+00 0.1900000D+00 0.1397000D+01 0.1397000D+01 0.1397000D+01
EXPONENTS  0.1397000D+01 0.1397000D+01 0.1397000D+01 0.1397000D+01 0.1397000D+01
EXPONENTS  0.1397000D+01 0.1397000D+01 0.3600000D+00 0.3600000D+00 0.3600000D+00
EXPONENTS  0.3600000D+00 0.3600000D+00 0.3600000D+00 0.3600000D+00 0.3600000D+00
EXPONENTS  0.3600000D+00 0.3600000D+00 0.8264000D+02 0.1241000D+02 0.2824000D+01
EXPONENTS  0.7977000D+00 0.2581000D+00 0.8989000D-01 0.2363000D-01 0.2292000D+01
EXPONENTS  0.2292000D+01 0.2292000D+01 0.8380000D+00 0.8380000D+00 0.8380000D+00
EXPONENTS  0.2920000D+00 0.2920000D+00 0.2920000D+00 0.8480000D-01 0.8480000D-01
EXPONENTS  0.8480000D-01 0.2062000D+01 0.2062000D+01 0.2062000D+01 0.2062000D+01
EXPONENTS  0.2062000D+01 0.2062000D+01 0.6620000D+00 0.6620000D+00 0.6620000D+00
EXPONENTS  0.6620000D+00 0.6620000D+00 0.6620000D+00 0.1900000D+00 0.1900000D+00
EXPONENTS  0.1900000D+00 0.1900000D+00 0.1900000D+00 0.1900000D+00 0.1397000D+01
EXPONENTS  0.1397000D+01 0.1397000D+01 0.1397000D+01 0.1397000D+01 0.1397000D+01
EXPONENTS  0.1397000D+01 0.1397000D+01 0.1397000D+01 0.1397000D+01 0.3600000D+00
EXPONENTS  0.3600000D+00 0.3600000D+00 0.3600000D+00 0.3600000D+00 0.3600000D+00
EXPONENTS  0.3600000D+00 0.3600000D+00 0.3600000D+00 0.3600000D+00
MO    1     MO 0.0        OCC NO =    1.0000000  ORB. ENERGY =   -0.499949
  0.39209334D-01  0.72344401D-01  0.11741281D+00  0.15422496D+00  0.12883718D+00
  0.34189708D-01  0.17530245D-03 -0.33328141D-15  0.11113564D-15 -0.61556499D-04
  0.17744894D-15 -0.73694297D-16  0.76565828D-04  0.64384386D-16  0.80223362D-16
 -0.59233031D-04 -0.21672615D-16 -0.22278923D-16  0.25959185D-04 -0.24206152D-04
 -0.24206152D-04  0.48412304D-04  0.30846096D-15 -0.59588115D-15  0.13974228D-15
  0.15644793D-04  0.15644793D-04 -0.31289586D-04 -0.18500031D-16  0.13034302D-15
  0.64794016D-16 -0.57552765D-05 -0.57552765D-05  0.11510553D-04 -0.22807240D-17
 -0.28081147D-17 -0.11141872D-16  0.10645340D-16 -0.72721543D-16 -0.81424459D-05
 -0.25468054D-15 -0.29724698D-16  0.12213669D-04  0.22274452D-15  0.24788933D-15
  0.12213669D-04  0.74893842D-16 -0.36592871D-17  0.62784326D-17  0.23877356D-05
  0.12283863D-16  0.60955870D-18 -0.35816034D-05 -0.13060014D-17 -0.19444857D-16
 -0.35816034D-05 -0.23156748D-17 -0.46490625D-06 -0.85778973D-06 -0.13921672D-05
 -0.55270919D-05  0.77821119D-04 -0.34838478D-04  0.72966879D-05 -0.28462300D-15
 -0.44874357D-15  0.76800162D-04  0.20556217D-15  0.81025492D-16 -0.93890351D-04
 -0.85614343D-16  0.95646771D-17  0.32995244D-04  0.33095885D-16 -0.53585861D-18
  0.30459318D-04  0.27746265D-04  0.27746265D-04 -0.55492530D-04 -0.34047280D-16
 -0.51518723D-15  0.10903674D-14 -0.24726353D-04 -0.24726353D-04  0.49452706D-04
  0.52513495D-16 -0.36406072D-16 -0.38226137D-16  0.24131359D-04  0.24131359D-04
 -0.48262719D-04 -0.10520870D-16  0.65436686D-17 -0.80907714D-17 -0.12698097D-16
  0.71906953D-17 -0.25827666D-04  0.29260252D-17 -0.14667994D-16  0.38741499D-04
  0.35168266D-16 -0.69040916D-17  0.38741499D-04  0.40673519D-16  0.33527405D-18
 -0.17776718D-17  0.14664439D-04 -0.98938786D-18  0.32602163D-18 -0.21996659D-04
 -0.16434290D-19  0.50069939D-17 -0.21996659D-04 -0.31978766D-18
END DATA
 TOTAL ENERGY =       -0.499948688706 THE VIRIAL(-V/T)=   2.00027869
