 TITLE
GAUSSIAN              1 MOL ORBITALS    114 PRIMITIVES        2 NUCLEI
  H    1    (CENTRE  1)   0.00000000  0.00000000  0.00000000  CHARGE =  1.0
  H    2    (CENTRE  2)   0.00000000  0.00000000  4.53534270  CHARGE =  0.0
CENTRE ASSIGNMENTS    1  1  1  1  1  1  1  1  1  1  1  1  1  1  1  1  1  1  1  1
CENTRE ASSIGNMENTS    1  1  1  1  1  1  1  1  1  1  1  1  1  1  1  1  1  1  1  1
CENTRE ASSIGNMENTS    1  1  1  1  1  1  1  1  1  1  1  1  1  1  1  1  1  2  2  2
CENTRE ASSIGNMENTS    2  2  2  2  2  2  2  2  2  2  2  2  2  2  2  2  2  2  2  2
CENTRE ASSIGNMENTS    2  2  2  2  2  2  2  2  2  2  2  2  2  2  2  2  2  2  2  2
CENTRE ASSIGNMENTS    2  2  2  2  2  2  2  2  2  2  2  2  2  2
TYPE ASSIGNMENTS      1  1  1  1  1  1  1  2  3  4  2  3  4  2  3  4  2  3  4  5
TYPE ASSIGNMENTS      6  7  8  9 10  5  6  7  8  9 10  5  6  7  8  9 10 11 12 13
TYPE ASSIGNMENTS     17 14 15 18 19 16 20 11 12 13 17 14 15 18 19 16 20  1  1  1
TYPE ASSIGNMENTS      1  1  1  1  2  3  4  2  3  4  2  3  4  2  3  4  5  6  7  8
TYPE ASSIGNMENTS      9 10  5  6  7  8  9 10  5  6  7  8  9 10 11 12 13 17 14 15
TYPE ASSIGNMENTS     18 19 16 20 11 12 13 17 14 15 18 19 16 20
EXPONENTS  0.8264000D+02 0.1241000D+02 0.2824000D+01 0.7977000D+00 0.2581000D+00
EXPONENTS  0.8989000D-01 0.2363000D-01 0.2292000D+01 0.2292000D+01 0.2292000D+01
EXPONENTS  0.8380000D+00 0.8380000D+00 0.8380000D+00 0.2920000D+00 0.2920000D+00
EXPONENTS  0.2920000D+00 0.8480000D-01 0.8480000D-01 0.8480000D-01 0.2062000D+01
EXPONENTS  0.2062000D+01 0.2062000D+01 0.2062000D+01 0.2062000D+01 0.2062000D+01
EXPONENTS  0.6620000D+00 0.6620000D+00 0.6620000D+00 0.6620000D+00 0.6620000D+00
EXPONENTS  0.6620000D+00 0.1900000D+00 0.1900000D+00 0.1900000D+00 0.1900000D+00
EXPONENTS  0.1900000D+00 0.1900000D+00 0.1397000D+01 0.1397000D+01 0.1397000D+01
EXPONENTS  0.1397000D+01 0.1397000D+01 0.1397000D+01 0.1397000D+01 0.1397000D+01
EXPONENTS  0.1397000D+01 0.1397000D+01 0.3600000D+00 0.3600000D+00 0.3600000D+00
EXPONENTS  0.3600000D+00 0.3600000D+00 0.3600000D+00 0.3600000D+00 0.3600000D+00
EXPONENTS  0.3600000D+00 0.3600000D+00 0.8264000D+02 0.1241000D+02 0.2824000D+01
EXPONENTS  0.7977000D+00 0.2581000D+00 0.8989000D-01 0.2363000D-01 0.2292000D+01
EXPONENTS  0.2292000D+01 0.2292000D+01 0.8380000D+00 0.8380000D+00 0.8380000D+00
EXPONENTS  0.2920000D+00 0.2920000D+00 0.2920000D+00 0.8480000D-01 0.8480000D-01
EXPONENTS  0.8480000D-01 0.2062000D+01 0.2062000D+01 0.2062000D+01 0.2062000D+01
EXPONENTS  0.2062000D+01 0.2062000D+01 0.6620000D+00 0.6620000D+00 0.6620000D+00
EXPONENTS  0.6620000D+00 0.6620000D+00 0.6620000D+00 0.1900000D+00 0.1900000D+00
EXPONENTS  0.1900000D+00 0.1900000D+00 0.1900000D+00 0.1900000D+00 0.1397000D+01
EXPONENTS  0.1397000D+01 0.1397000D+01 0.1397000D+01 0.1397000D+01 0.1397000D+01
EXPONENTS  0.1397000D+01 0.1397000D+01 0.1397000D+01 0.1397000D+01 0.3600000D+00
EXPONENTS  0.3600000D+00 0.3600000D+00 0.3600000D+00 0.3600000D+00 0.3600000D+00
EXPONENTS  0.3600000D+00 0.3600000D+00 0.3600000D+00 0.3600000D+00
MO    1     MO 0.0        OCC NO =    1.0000000  ORB. ENERGY =   -0.499949
  0.39207251D-01  0.72340557D-01  0.11740657D+00  0.15425273D+00  0.12874628D+00
  0.34387914D-01  0.19190259D-03  0.13880533D-15  0.19294373D-15 -0.63398262D-04
 -0.16236278D-15 -0.16460614D-15  0.71315535D-04  0.11014132D-15  0.85860795D-16
 -0.53971722D-04 -0.58651205D-17  0.26647778D-17  0.11198470D-03 -0.17078773D-04
 -0.17078773D-04  0.34157547D-04 -0.11063322D-15 -0.22766964D-15 -0.14568970D-15
  0.14035340D-04  0.14035340D-04 -0.28070680D-04  0.10661245D-15  0.68336890D-16
  0.32134674D-16 -0.14067900D-04 -0.14067900D-04  0.28135801D-04 -0.24692042D-16
 -0.27735197D-16  0.24957248D-16  0.35297811D-16  0.22650055D-16  0.12191301D-04
  0.23963269D-15 -0.22711632D-16 -0.18286951D-04 -0.34552612D-15 -0.45238533D-16
 -0.18286951D-04  0.29740258D-16  0.98400924D-17 -0.14050717D-17 -0.13361294D-05
 -0.45762761D-16 -0.52176277D-17  0.20041941D-05  0.16242484D-16  0.94328429D-17
  0.20041941D-05  0.10749154D-16 -0.16223623D-05 -0.29933901D-05 -0.48581828D-05
 -0.40722567D-04  0.10339691D-03 -0.27652055D-03  0.33061819D-05 -0.49385496D-15
  0.11499560D-15  0.58568152D-04  0.16899058D-15 -0.10755781D-15 -0.10265254D-03
 -0.29057265D-16  0.76893568D-16 -0.14056400D-03  0.18215627D-17 -0.28568197D-16
  0.13762562D-03 -0.41984155D-04 -0.41984155D-04  0.83968309D-04 -0.60390369D-15
  0.28024444D-15 -0.56123612D-15 -0.22076287D-04 -0.22076287D-04  0.44152574D-04
  0.64143338D-17 -0.57721120D-16 -0.45885063D-17 -0.62940060D-05 -0.62940060D-05
  0.12588012D-04  0.12148731D-17  0.29660280D-17  0.93604665D-17  0.13076444D-16
  0.10957309D-16 -0.57929236D-05  0.14097509D-16 -0.46158224D-17  0.86893854D-05
 -0.53326841D-16 -0.28256104D-16  0.86893854D-05  0.39526883D-16 -0.20711452D-17
  0.26390504D-18  0.30633137D-04 -0.53792027D-17  0.25219538D-17 -0.45949705D-04
  0.11592638D-16 -0.33136689D-17 -0.45949705D-04 -0.18334499D-16
END DATA
 TOTAL ENERGY =       -0.499949188735 THE VIRIAL(-V/T)=   2.00027198
