 TITLE
GAUSSIAN              1 MOL ORBITALS    114 PRIMITIVES        2 NUCLEI
  H    1    (CENTRE  1)   0.00000000  0.00000000  0.00000000  CHARGE =  1.0
  H    2    (CENTRE  2)   0.00000000  0.00000000  6.23609621  CHARGE =  0.0
CENTRE ASSIGNMENTS    1  1  1  1  1  1  1  1  1  1  1  1  1  1  1  1  1  1  1  1
CENTRE ASSIGNMENTS    1  1  1  1  1  1  1  1  1  1  1  1  1  1  1  1  1  1  1  1
CENTRE ASSIGNMENTS    1  1  1  1  1  1  1  1  1  1  1  1  1  1  1  1  1  2  2  2
CENTRE ASSIGNMENTS    2  2  2  2  2  2  2  2  2  2  2  2  2  2  2  2  2  2  2  2
CENTRE ASSIGNMENTS    2  2  2  2  2  2  2  2  2  2  2  2  2  2  2  2  2  2  2  2
CENTRE ASSIGNMENTS    2  2  2  2  2  2  2  2  2  2  2  2  2  2
TYPE ASSIGNMENTS      1  1  1  1  1  1  1  2  3  4  2  3  4  2  3  4  2  3  4  5
TYPE ASSIGNMENTS      6  7  8  9 10  5  6  7  8  9 10  5  6  7  8  9 10 11 12 13
TYPE ASSIGNMENTS     17 14 15 18 19 16 20 11 12 13 17 14 15 18 19 16 20  1  1  1
TYPE ASSIGNMENTS      1  1  1  1  2  3  4  2  3  4  2  3  4  2  3  4  5  6  7  8
TYPE ASSIGNMENTS      9 10  5  6  7  8  9 10  5  6  7  8  9 10 11 12 13 17 14 15
TYPE ASSIGNMENTS     18 19 16 20 11 12 13 17 14 15 18 19 16 20
EXPONENTS  0.8264000D+02 0.1241000D+02 0.2824000D+01 0.7977000D+00 0.2581000D+00
EXPONENTS  0.8989000D-01 0.2363000D-01 0.2292000D+01 0.2292000D+01 0.2292000D+01
EXPONENTS  0.8380000D+00 0.8380000D+00 0.8380000D+00 0.2920000D+00 0.2920000D+00
EXPONENTS  0.2920000D+00 0.8480000D-01 0.8480000D-01 0.8480000D-01 0.2062000D+01
EXPONENTS  0.2062000D+01 0.2062000D+01 0.2062000D+01 0.2062000D+01 0.2062000D+01
EXPONENTS  0.6620000D+00 0.6620000D+00 0.6620000D+00 0.6620000D+00 0.6620000D+00
EXPONENTS  0.6620000D+00 0.1900000D+00 0.1900000D+00 0.1900000D+00 0.1900000D+00
EXPONENTS  0.1900000D+00 0.1900000D+00 0.1397000D+01 0.1397000D+01 0.1397000D+01
EXPONENTS  0.1397000D+01 0.1397000D+01 0.1397000D+01 0.1397000D+01 0.1397000D+01
EXPONENTS  0.1397000D+01 0.1397000D+01 0.3600000D+00 0.3600000D+00 0.3600000D+00
EXPONENTS  0.3600000D+00 0.3600000D+00 0.3600000D+00 0.3600000D+00 0.3600000D+00
EXPONENTS  0.3600000D+00 0.3600000D+00 0.8264000D+02 0.1241000D+02 0.2824000D+01
EXPONENTS  0.7977000D+00 0.2581000D+00 0.8989000D-01 0.2363000D-01 0.2292000D+01
EXPONENTS  0.2292000D+01 0.2292000D+01 0.8380000D+00 0.8380000D+00 0.8380000D+00
EXPONENTS  0.2920000D+00 0.2920000D+00 0.2920000D+00 0.8480000D-01 0.8480000D-01
EXPONENTS  0.8480000D-01 0.2062000D+01 0.2062000D+01 0.2062000D+01 0.2062000D+01
EXPONENTS  0.2062000D+01 0.2062000D+01 0.6620000D+00 0.6620000D+00 0.6620000D+00
EXPONENTS  0.6620000D+00 0.6620000D+00 0.6620000D+00 0.1900000D+00 0.1900000D+00
EXPONENTS  0.1900000D+00 0.1900000D+00 0.1900000D+00 0.1900000D+00 0.1397000D+01
EXPONENTS  0.1397000D+01 0.1397000D+01 0.1397000D+01 0.1397000D+01 0.1397000D+01
EXPONENTS  0.1397000D+01 0.1397000D+01 0.1397000D+01 0.1397000D+01 0.3600000D+00
EXPONENTS  0.3600000D+00 0.3600000D+00 0.3600000D+00 0.3600000D+00 0.3600000D+00
EXPONENTS  0.3600000D+00 0.3600000D+00 0.3600000D+00 0.3600000D+00
MO    1     MO 0.0        OCC NO =    1.0000000  ORB. ENERGY =   -0.499949
  0.39209505D-01  0.72344717D-01  0.11741332D+00  0.15422438D+00  0.12883137D+00
  0.34200800D-01  0.17774527D-03 -0.52236657D-15 -0.21638289D-15 -0.58437333D-04
  0.46787124D-15  0.12141889D-15  0.72521134D-04 -0.19276882D-15  0.94070973D-17
 -0.58178620D-04  0.25042807D-16 -0.22768524D-16  0.34009994D-04 -0.22067575D-04
 -0.22067575D-04  0.44135150D-04 -0.23323061D-15 -0.13433129D-15 -0.16125678D-15
  0.14886715D-04  0.14886715D-04 -0.29773430D-04 -0.41921097D-16 -0.44790952D-16
  0.16033836D-15 -0.67571664D-05 -0.67571664D-05  0.13514333D-04  0.20023746D-16
  0.87488138D-17 -0.27472782D-16  0.23601746D-16 -0.44212684D-16 -0.75682209D-05
  0.30984162D-16 -0.97934812D-16  0.11352331D-04 -0.10178940D-15  0.23057286D-15
  0.11352331D-04  0.13016618D-15 -0.30677058D-18 -0.37621724D-17  0.26556826D-05
  0.58831297D-18  0.18396046D-16 -0.39835239D-05  0.33199878D-18 -0.71095285D-17
 -0.39835239D-05 -0.23428665D-16  0.41803471D-06  0.77130795D-06  0.12518098D-05
  0.14898619D-04 -0.49279435D-05 -0.34855611D-04  0.66782177D-05 -0.20552031D-15
 -0.30388130D-15 -0.43730024D-04  0.10737147D-15  0.83240750D-16  0.22428404D-04
 -0.29302024D-16  0.48512782D-16  0.66524307D-04  0.48707255D-19 -0.18155977D-16
  0.42247890D-04 -0.94698043D-05 -0.94698043D-05  0.18939609D-04  0.94301435D-15
 -0.22809416D-15 -0.58270834D-15  0.14078515D-04  0.14078515D-04 -0.28157030D-04
 -0.10278613D-15  0.36586336D-16  0.25160590D-16  0.75257517D-05  0.75257517D-05
 -0.15051503D-04  0.49844734D-17  0.91896164D-17 -0.10669357D-16 -0.18458478D-18
  0.13967162D-16  0.12632007D-03  0.11974124D-16  0.11106058D-16 -0.18948011D-03
 -0.11420370D-16 -0.53007543D-16 -0.18948011D-03 -0.74472518D-16  0.31222760D-18
 -0.56061805D-17 -0.38332686D-04  0.32190667D-17 -0.29687012D-17  0.57499030D-04
 -0.41557495D-17  0.19787243D-16  0.57499030D-04 -0.47698432D-17
END DATA
 TOTAL ENERGY =       -0.499948768584 THE VIRIAL(-V/T)=   2.00027645
