 TITLE
GAUSSIAN              1 MOL ORBITALS    114 PRIMITIVES        2 NUCLEI
  H    1    (CENTRE  1)   0.00000000  0.00000000  0.00000000  CHARGE =  1.0
  H    2    (CENTRE  2)   0.00000000  0.00000000  7.74787711  CHARGE =  0.0
CENTRE ASSIGNMENTS    1  1  1  1  1  1  1  1  1  1  1  1  1  1  1  1  1  1  1  1
CENTRE ASSIGNMENTS    1  1  1  1  1  1  1  1  1  1  1  1  1  1  1  1  1  1  1  1
CENTRE ASSIGNMENTS    1  1  1  1  1  1  1  1  1  1  1  1  1  1  1  1  1  2  2  2
CENTRE ASSIGNMENTS    2  2  2  2  2  2  2  2  2  2  2  2  2  2  2  2  2  2  2  2
CENTRE ASSIGNMENTS    2  2  2  2  2  2  2  2  2  2  2  2  2  2  2  2  2  2  2  2
CENTRE ASSIGNMENTS    2  2  2  2  2  2  2  2  2  2  2  2  2  2
TYPE ASSIGNMENTS      1  1  1  1  1  1  1  2  3  4  2  3  4  2  3  4  2  3  4  5
TYPE ASSIGNMENTS      6  7  8  9 10  5  6  7  8  9 10  5  6  7  8  9 10 11 12 13
TYPE ASSIGNMENTS     17 14 15 18 19 16 20 11 12 13 17 14 15 18 19 16 20  1  1  1
TYPE ASSIGNMENTS      1  1  1  1  2  3  4  2  3  4  2  3  4  2  3  4  5  6  7  8
TYPE ASSIGNMENTS      9 10  5  6  7  8  9 10  5  6  7  8  9 10 11 12 13 17 14 15
TYPE ASSIGNMENTS     18 19 16 20 11 12 13 17 14 15 18 19 16 20
EXPONENTS  0.8264000D+02 0.1241000D+02 0.2824000D+01 0.7977000D+00 0.2581000D+00
EXPONENTS  0.8989000D-01 0.2363000D-01 0.2292000D+01 0.2292000D+01 0.2292000D+01
EXPONENTS  0.8380000D+00 0.8380000D+00 0.8380000D+00 0.2920000D+00 0.2920000D+00
EXPONENTS  0.2920000D+00 0.8480000D-01 0.8480000D-01 0.8480000D-01 0.2062000D+01
EXPONENTS  0.2062000D+01 0.2062000D+01 0.2062000D+01 0.2062000D+01 0.2062000D+01
EXPONENTS  0.6620000D+00 0.6620000D+00 0.6620000D+00 0.6620000D+00 0.6620000D+00
EXPONENTS  0.6620000D+00 0.1900000D+00 0.1900000D+00 0.1900000D+00 0.1900000D+00
EXPONENTS  0.1900000D+00 0.1900000D+00 0.1397000D+01 0.1397000D+01 0.1397000D+01
EXPONENTS  0.1397000D+01 0.1397000D+01 0.1397000D+01 0.1397000D+01 0.1397000D+01
EXPONENTS  0.1397000D+01 0.1397000D+01 0.3600000D+00 0.3600000D+00 0.3600000D+00
EXPONENTS  0.3600000D+00 0.3600000D+00 0.3600000D+00 0.3600000D+00 0.3600000D+00
EXPONENTS  0.3600000D+00 0.3600000D+00 0.8264000D+02 0.1241000D+02 0.2824000D+01
EXPONENTS  0.7977000D+00 0.2581000D+00 0.8989000D-01 0.2363000D-01 0.2292000D+01
EXPONENTS  0.2292000D+01 0.2292000D+01 0.8380000D+00 0.8380000D+00 0.8380000D+00
EXPONENTS  0.2920000D+00 0.2920000D+00 0.2920000D+00 0.8480000D-01 0.8480000D-01
EXPONENTS  0.8480000D-01 0.2062000D+01 0.2062000D+01 0.2062000D+01 0.2062000D+01
EXPONENTS  0.2062000D+01 0.2062000D+01 0.6620000D+00 0.6620000D+00 0.6620000D+00
EXPONENTS  0.6620000D+00 0.6620000D+00 0.6620000D+00 0.1900000D+00 0.1900000D+00
EXPONENTS  0.1900000D+00 0.1900000D+00 0.1900000D+00 0.1900000D+00 0.1397000D+01
EXPONENTS  0.1397000D+01 0.1397000D+01 0.1397000D+01 0.1397000D+01 0.1397000D+01
EXPONENTS  0.1397000D+01 0.1397000D+01 0.1397000D+01 0.1397000D+01 0.3600000D+00
EXPONENTS  0.3600000D+00 0.3600000D+00 0.3600000D+00 0.3600000D+00 0.3600000D+00
EXPONENTS  0.3600000D+00 0.3600000D+00 0.3600000D+00 0.3600000D+00
MO    1     MO 0.0        OCC NO =    1.0000000  ORB. ENERGY =   -0.499949
  0.39210858D-01  0.72347213D-01  0.11741737D+00  0.15420778D+00  0.12886434D+00
  0.34173991D-01  0.17421373D-03 -0.11779272D-15 -0.82656887D-16 -0.41340679D-04
  0.64117290D-16  0.15462993D-15  0.50680496D-04 -0.21516330D-16 -0.38488683D-16
 -0.37280661D-04 -0.15888253D-16  0.61739061D-17  0.14495773D-04 -0.11780264D-04
 -0.11780264D-04  0.23560529D-04  0.92726963D-16  0.10813606D-15 -0.48009473D-15
  0.75262785D-05  0.75262785D-05 -0.15052557D-04 -0.19866663D-16 -0.51298053D-17
  0.83940431D-16 -0.26365015D-05 -0.26365015D-05  0.52730029D-05  0.26896020D-17
 -0.60704240D-17 -0.66587503D-17 -0.19842736D-16 -0.10674102D-16 -0.27364703D-05
  0.18678720D-17 -0.58507926D-16  0.41047055D-05  0.57660336D-16  0.90530230D-16
  0.41047055D-05  0.72330198D-16  0.18324460D-19 -0.12616129D-17  0.75621216D-06
  0.20749919D-17  0.22281871D-17 -0.11343182D-05 -0.21299653D-17  0.15566516D-17
 -0.11343182D-05 -0.11783877D-17  0.29418677D-05  0.54279845D-05  0.88094570D-05
 -0.43401572D-04  0.97244716D-04 -0.26217036D-04  0.81378144D-05 -0.16236291D-15
  0.82842291D-15  0.27565816D-04  0.10857193D-15 -0.12398623D-15 -0.20146706D-04
 -0.55234050D-16 -0.21279522D-16 -0.30131467D-04  0.13612385D-16  0.99266663D-17
  0.21917621D-04  0.66691531D-04  0.66691531D-04 -0.13338306D-03 -0.36211201D-15
 -0.88210704D-15  0.56093168D-15 -0.47409989D-04 -0.47409989D-04  0.94819978D-04
 -0.14501041D-16  0.33393631D-17 -0.40319488D-16  0.22724170D-04  0.22724170D-04
 -0.45448339D-04  0.55378344D-17  0.12966368D-16  0.53240531D-18  0.92923794D-17
 -0.38539675D-17 -0.72237972D-04 -0.36390632D-16  0.11256994D-16  0.10835696D-03
  0.85134941D-17  0.30490850D-18  0.10835696D-03  0.13538035D-16  0.11375927D-17
  0.10423069D-17  0.24545183D-04  0.17006706D-17  0.56781608D-18 -0.36817774D-04
 -0.51134488D-17 -0.36947368D-17 -0.36817774D-04 -0.14020222D-17
END DATA
 TOTAL ENERGY =       -0.499948640271 THE VIRIAL(-V/T)=   2.00027790
