 TITLE
GAUSSIAN              1 MOL ORBITALS    114 PRIMITIVES        2 NUCLEI
  H    1    (CENTRE  1)   0.00000000  0.00000000  0.00000000  CHARGE =  1.0
  H    2    (CENTRE  2)   0.00000000  0.00000000  7.93684972  CHARGE =  0.0
CENTRE ASSIGNMENTS    1  1  1  1  1  1  1  1  1  1  1  1  1  1  1  1  1  1  1  1
CENTRE ASSIGNMENTS    1  1  1  1  1  1  1  1  1  1  1  1  1  1  1  1  1  1  1  1
CENTRE ASSIGNMENTS    1  1  1  1  1  1  1  1  1  1  1  1  1  1  1  1  1  2  2  2
CENTRE ASSIGNMENTS    2  2  2  2  2  2  2  2  2  2  2  2  2  2  2  2  2  2  2  2
CENTRE ASSIGNMENTS    2  2  2  2  2  2  2  2  2  2  2  2  2  2  2  2  2  2  2  2
CENTRE ASSIGNMENTS    2  2  2  2  2  2  2  2  2  2  2  2  2  2
TYPE ASSIGNMENTS      1  1  1  1  1  1  1  2  3  4  2  3  4  2  3  4  2  3  4  5
TYPE ASSIGNMENTS      6  7  8  9 10  5  6  7  8  9 10  5  6  7  8  9 10 11 12 13
TYPE ASSIGNMENTS     17 14 15 18 19 16 20 11 12 13 17 14 15 18 19 16 20  1  1  1
TYPE ASSIGNMENTS      1  1  1  1  2  3  4  2  3  4  2  3  4  2  3  4  5  6  7  8
TYPE ASSIGNMENTS      9 10  5  6  7  8  9 10  5  6  7  8  9 10 11 12 13 17 14 15
TYPE ASSIGNMENTS     18 19 16 20 11 12 13 17 14 15 18 19 16 20
EXPONENTS  0.8264000D+02 0.1241000D+02 0.2824000D+01 0.7977000D+00 0.2581000D+00
EXPONENTS  0.8989000D-01 0.2363000D-01 0.2292000D+01 0.2292000D+01 0.2292000D+01
EXPONENTS  0.8380000D+00 0.8380000D+00 0.8380000D+00 0.2920000D+00 0.2920000D+00
EXPONENTS  0.2920000D+00 0.8480000D-01 0.8480000D-01 0.8480000D-01 0.2062000D+01
EXPONENTS  0.2062000D+01 0.2062000D+01 0.2062000D+01 0.2062000D+01 0.2062000D+01
EXPONENTS  0.6620000D+00 0.6620000D+00 0.6620000D+00 0.6620000D+00 0.6620000D+00
EXPONENTS  0.6620000D+00 0.1900000D+00 0.1900000D+00 0.1900000D+00 0.1900000D+00
EXPONENTS  0.1900000D+00 0.1900000D+00 0.1397000D+01 0.1397000D+01 0.1397000D+01
EXPONENTS  0.1397000D+01 0.1397000D+01 0.1397000D+01 0.1397000D+01 0.1397000D+01
EXPONENTS  0.1397000D+01 0.1397000D+01 0.3600000D+00 0.3600000D+00 0.3600000D+00
EXPONENTS  0.3600000D+00 0.3600000D+00 0.3600000D+00 0.3600000D+00 0.3600000D+00
EXPONENTS  0.3600000D+00 0.3600000D+00 0.8264000D+02 0.1241000D+02 0.2824000D+01
EXPONENTS  0.7977000D+00 0.2581000D+00 0.8989000D-01 0.2363000D-01 0.2292000D+01
EXPONENTS  0.2292000D+01 0.2292000D+01 0.8380000D+00 0.8380000D+00 0.8380000D+00
EXPONENTS  0.2920000D+00 0.2920000D+00 0.2920000D+00 0.8480000D-01 0.8480000D-01
EXPONENTS  0.8480000D-01 0.2062000D+01 0.2062000D+01 0.2062000D+01 0.2062000D+01
EXPONENTS  0.2062000D+01 0.2062000D+01 0.6620000D+00 0.6620000D+00 0.6620000D+00
EXPONENTS  0.6620000D+00 0.6620000D+00 0.6620000D+00 0.1900000D+00 0.1900000D+00
EXPONENTS  0.1900000D+00 0.1900000D+00 0.1900000D+00 0.1900000D+00 0.1397000D+01
EXPONENTS  0.1397000D+01 0.1397000D+01 0.1397000D+01 0.1397000D+01 0.1397000D+01
EXPONENTS  0.1397000D+01 0.1397000D+01 0.1397000D+01 0.1397000D+01 0.3600000D+00
EXPONENTS  0.3600000D+00 0.3600000D+00 0.3600000D+00 0.3600000D+00 0.3600000D+00
EXPONENTS  0.3600000D+00 0.3600000D+00 0.3600000D+00 0.3600000D+00
MO    1     MO 0.0        OCC NO =    1.0000000  ORB. ENERGY =   -0.499949
  0.39211370D-01  0.72348159D-01  0.11741890D+00  0.15420219D+00  0.12887246D+00
  0.34170013D-01  0.17369702D-03  0.48726706D-16 -0.34164373D-16 -0.32094052D-04
 -0.29508391D-16 -0.72916791D-16  0.39197814D-04 -0.37659965D-16  0.33552604D-16
 -0.28439019D-04  0.21184828D-16 -0.51677783D-17  0.10656670D-04 -0.82200329D-05
 -0.82200329D-05  0.16440066D-04 -0.20808123D-16  0.51511936D-17 -0.50864810D-15
  0.52337882D-05  0.52337882D-05 -0.10467576D-04  0.19201448D-16 -0.21831693D-17
  0.11293200D-15 -0.18029198D-05 -0.18029198D-05  0.36058397D-05 -0.19953451D-19
 -0.72207110D-17 -0.27176935D-17 -0.15900862D-16  0.65636216D-16 -0.16285147D-05
 -0.72194366D-16  0.65997652D-16  0.24427721D-05  0.11989695D-15 -0.26290630D-15
  0.24427721D-05  0.93883145D-16 -0.38076631D-17  0.14647376D-17  0.43553825D-06
  0.10219215D-16 -0.59619267D-17 -0.65330738D-06  0.12037737D-17  0.15677139D-17
 -0.65330738D-06 -0.30462593D-17  0.38015624D-05  0.70141909D-05  0.11383823D-04
 -0.50797577D-04  0.94495869D-04 -0.21461459D-04  0.82578178D-05 -0.10008071D-15
  0.52085713D-15  0.31018092D-05 -0.23988807D-16 -0.27229175D-15  0.10176745D-04
  0.36101239D-16  0.94797230D-16 -0.46801945D-04 -0.75788153D-17 -0.13781938D-16
  0.18588211D-04  0.71450596D-04  0.71450596D-04 -0.14290119D-03 -0.66575948D-15
 -0.14531429D-14 -0.28675037D-15 -0.49119974D-04 -0.49119974D-04  0.98239948D-04
  0.83648979D-16  0.12007562D-15  0.42862577D-16  0.20603537D-04  0.20603537D-04
 -0.41207073D-04 -0.52650125D-17 -0.15252121D-18  0.11450027D-18 -0.44981768D-17
 -0.98913195D-17 -0.73858227D-04 -0.28588398D-16  0.63454629D-17  0.11078734D-03
  0.42082928D-16  0.23328496D-16  0.11078734D-03  0.12408058D-16 -0.38078620D-18
  0.51963112D-18  0.23853661D-04  0.35466237D-17  0.28783689D-18 -0.35780492D-04
 -0.24042651D-17 -0.18467302D-17 -0.35780492D-04  0.71251389D-19
END DATA
 TOTAL ENERGY =       -0.499948598687 THE VIRIAL(-V/T)=   2.00027772
