 TITLE
GAUSSIAN              1 MOL ORBITALS    114 PRIMITIVES        2 NUCLEI
  H    1    (CENTRE  1)   0.00000000  0.00000000  0.00000000  CHARGE =  1.0
  H    2    (CENTRE  2)   0.00000000  0.00000000 10.96041152  CHARGE =  0.0
CENTRE ASSIGNMENTS    1  1  1  1  1  1  1  1  1  1  1  1  1  1  1  1  1  1  1  1
CENTRE ASSIGNMENTS    1  1  1  1  1  1  1  1  1  1  1  1  1  1  1  1  1  1  1  1
CENTRE ASSIGNMENTS    1  1  1  1  1  1  1  1  1  1  1  1  1  1  1  1  1  2  2  2
CENTRE ASSIGNMENTS    2  2  2  2  2  2  2  2  2  2  2  2  2  2  2  2  2  2  2  2
CENTRE ASSIGNMENTS    2  2  2  2  2  2  2  2  2  2  2  2  2  2  2  2  2  2  2  2
CENTRE ASSIGNMENTS    2  2  2  2  2  2  2  2  2  2  2  2  2  2
TYPE ASSIGNMENTS      1  1  1  1  1  1  1  2  3  4  2  3  4  2  3  4  2  3  4  5
TYPE ASSIGNMENTS      6  7  8  9 10  5  6  7  8  9 10  5  6  7  8  9 10 11 12 13
TYPE ASSIGNMENTS     17 14 15 18 19 16 20 11 12 13 17 14 15 18 19 16 20  1  1  1
TYPE ASSIGNMENTS      1  1  1  1  2  3  4  2  3  4  2  3  4  2  3  4  5  6  7  8
TYPE ASSIGNMENTS      9 10  5  6  7  8  9 10  5  6  7  8  9 10 11 12 13 17 14 15
TYPE ASSIGNMENTS     18 19 16 20 11 12 13 17 14 15 18 19 16 20
EXPONENTS  0.8264000D+02 0.1241000D+02 0.2824000D+01 0.7977000D+00 0.2581000D+00
EXPONENTS  0.8989000D-01 0.2363000D-01 0.2292000D+01 0.2292000D+01 0.2292000D+01
EXPONENTS  0.8380000D+00 0.8380000D+00 0.8380000D+00 0.2920000D+00 0.2920000D+00
EXPONENTS  0.2920000D+00 0.8480000D-01 0.8480000D-01 0.8480000D-01 0.2062000D+01
EXPONENTS  0.2062000D+01 0.2062000D+01 0.2062000D+01 0.2062000D+01 0.2062000D+01
EXPONENTS  0.6620000D+00 0.6620000D+00 0.6620000D+00 0.6620000D+00 0.6620000D+00
EXPONENTS  0.6620000D+00 0.1900000D+00 0.1900000D+00 0.1900000D+00 0.1900000D+00
EXPONENTS  0.1900000D+00 0.1900000D+00 0.1397000D+01 0.1397000D+01 0.1397000D+01
EXPONENTS  0.1397000D+01 0.1397000D+01 0.1397000D+01 0.1397000D+01 0.1397000D+01
EXPONENTS  0.1397000D+01 0.1397000D+01 0.3600000D+00 0.3600000D+00 0.3600000D+00
EXPONENTS  0.3600000D+00 0.3600000D+00 0.3600000D+00 0.3600000D+00 0.3600000D+00
EXPONENTS  0.3600000D+00 0.3600000D+00 0.8264000D+02 0.1241000D+02 0.2824000D+01
EXPONENTS  0.7977000D+00 0.2581000D+00 0.8989000D-01 0.2363000D-01 0.2292000D+01
EXPONENTS  0.2292000D+01 0.2292000D+01 0.8380000D+00 0.8380000D+00 0.8380000D+00
EXPONENTS  0.2920000D+00 0.2920000D+00 0.2920000D+00 0.8480000D-01 0.8480000D-01
EXPONENTS  0.8480000D-01 0.2062000D+01 0.2062000D+01 0.2062000D+01 0.2062000D+01
EXPONENTS  0.2062000D+01 0.2062000D+01 0.6620000D+00 0.6620000D+00 0.6620000D+00
EXPONENTS  0.6620000D+00 0.6620000D+00 0.6620000D+00 0.1900000D+00 0.1900000D+00
EXPONENTS  0.1900000D+00 0.1900000D+00 0.1900000D+00 0.1900000D+00 0.1397000D+01
EXPONENTS  0.1397000D+01 0.1397000D+01 0.1397000D+01 0.1397000D+01 0.1397000D+01
EXPONENTS  0.1397000D+01 0.1397000D+01 0.1397000D+01 0.1397000D+01 0.3600000D+00
EXPONENTS  0.3600000D+00 0.3600000D+00 0.3600000D+00 0.3600000D+00 0.3600000D+00
EXPONENTS  0.3600000D+00 0.3600000D+00 0.3600000D+00 0.3600000D+00
MO    1     MO 0.0        OCC NO =    1.0000000  ORB. ENERGY =   -0.499948
  0.39212581D-01  0.72350393D-01  0.11742253D+00  0.15418925D+00  0.12888838D+00
  0.34166978D-01  0.17008378D-03  0.24249574D-15  0.25714618D-15  0.65528135D-05
 -0.24282224D-15 -0.91558173D-16 -0.79820682D-05  0.46784373D-16 -0.85487608D-16
  0.57487084D-05 -0.12381603D-16  0.16117227D-16 -0.24059152D-05  0.38582698D-06
  0.38582698D-06 -0.77165395D-06 -0.64111121D-16 -0.25207700D-16  0.33589932D-15
 -0.25251023D-06 -0.25251023D-06  0.50502046D-06  0.29001482D-16  0.15327856D-16
 -0.66634545D-16  0.85504473D-07  0.85504473D-07 -0.17100895D-06 -0.26102950D-17
 -0.76792448D-17  0.18357630D-16 -0.25082184D-16  0.23911412D-16  0.86814329D-08
  0.14106769D-16 -0.20078285D-17 -0.13022149D-07  0.61139783D-16 -0.69726406D-16
 -0.13022149D-07  0.31562104D-16  0.97345558D-18 -0.11256510D-17  0.12675162D-08
 -0.13609080D-16  0.40300021D-17 -0.19012743D-08  0.10688713D-16 -0.65304915D-18
 -0.19012744D-08 -0.93773336D-17 -0.19236616D-05 -0.35493116D-05 -0.57604270D-05
  0.21469353D-04 -0.30623391D-04  0.61349938D-05  0.86734211D-05  0.18095037D-15
  0.24221603D-15  0.44431351D-04 -0.43494211D-16 -0.11279801D-15 -0.56176706D-04
  0.53179836D-17  0.38157753D-16  0.46006950D-04  0.67204737D-18 -0.29227193D-17
 -0.22151637D-04 -0.23559798D-04 -0.23559798D-04  0.47119596D-04 -0.10839416D-14
  0.25717027D-15  0.10231000D-14  0.15215180D-04  0.15215180D-04 -0.30430361D-04
  0.21125996D-15  0.67911651D-17 -0.32858463D-16 -0.57962779D-05 -0.57962779D-05
  0.11592556D-04 -0.17303117D-16  0.77575071D-18 -0.86287545D-17 -0.14214807D-16
  0.59611979D-17  0.10063041D-04 -0.16067976D-16  0.17099135D-16 -0.15094561D-04
  0.58712397D-16 -0.34982729D-16 -0.15094561D-04  0.94830301D-17 -0.15479939D-17
  0.12773137D-17 -0.30524237D-05 -0.13698464D-17  0.82033084D-18  0.45786356D-05
  0.60138281D-17 -0.46522719D-17  0.45786356D-05  0.47839452D-18
END DATA
 TOTAL ENERGY =       -0.499948392924 THE VIRIAL(-V/T)=   2.00027958
