 TITLE
GAUSSIAN              1 MOL ORBITALS    114 PRIMITIVES        2 NUCLEI
  H    1    (CENTRE  1)   0.00000000  0.00000000  0.00000000  CHARGE =  1.0
  H    2    (CENTRE  2)   0.00000000  0.00000000  4.91328792  CHARGE =  0.0
CENTRE ASSIGNMENTS    1  1  1  1  1  1  1  1  1  1  1  1  1  1  1  1  1  1  1  1
CENTRE ASSIGNMENTS    1  1  1  1  1  1  1  1  1  1  1  1  1  1  1  1  1  1  1  1
CENTRE ASSIGNMENTS    1  1  1  1  1  1  1  1  1  1  1  1  1  1  1  1  1  2  2  2
CENTRE ASSIGNMENTS    2  2  2  2  2  2  2  2  2  2  2  2  2  2  2  2  2  2  2  2
CENTRE ASSIGNMENTS    2  2  2  2  2  2  2  2  2  2  2  2  2  2  2  2  2  2  2  2
CENTRE ASSIGNMENTS    2  2  2  2  2  2  2  2  2  2  2  2  2  2
TYPE ASSIGNMENTS      1  1  1  1  1  1  1  2  3  4  2  3  4  2  3  4  2  3  4  5
TYPE ASSIGNMENTS      6  7  8  9 10  5  6  7  8  9 10  5  6  7  8  9 10 11 12 13
TYPE ASSIGNMENTS     17 14 15 18 19 16 20 11 12 13 17 14 15 18 19 16 20  1  1  1
TYPE ASSIGNMENTS      1  1  1  1  2  3  4  2  3  4  2  3  4  2  3  4  5  6  7  8
TYPE ASSIGNMENTS      9 10  5  6  7  8  9 10  5  6  7  8  9 10 11 12 13 17 14 15
TYPE ASSIGNMENTS     18 19 16 20 11 12 13 17 14 15 18 19 16 20
EXPONENTS  0.8264000D+02 0.1241000D+02 0.2824000D+01 0.7977000D+00 0.2581000D+00
EXPONENTS  0.8989000D-01 0.2363000D-01 0.2292000D+01 0.2292000D+01 0.2292000D+01
EXPONENTS  0.8380000D+00 0.8380000D+00 0.8380000D+00 0.2920000D+00 0.2920000D+00
EXPONENTS  0.2920000D+00 0.8480000D-01 0.8480000D-01 0.8480000D-01 0.2062000D+01
EXPONENTS  0.2062000D+01 0.2062000D+01 0.2062000D+01 0.2062000D+01 0.2062000D+01
EXPONENTS  0.6620000D+00 0.6620000D+00 0.6620000D+00 0.6620000D+00 0.6620000D+00
EXPONENTS  0.6620000D+00 0.1900000D+00 0.1900000D+00 0.1900000D+00 0.1900000D+00
EXPONENTS  0.1900000D+00 0.1900000D+00 0.1397000D+01 0.1397000D+01 0.1397000D+01
EXPONENTS  0.1397000D+01 0.1397000D+01 0.1397000D+01 0.1397000D+01 0.1397000D+01
EXPONENTS  0.1397000D+01 0.1397000D+01 0.3600000D+00 0.3600000D+00 0.3600000D+00
EXPONENTS  0.3600000D+00 0.3600000D+00 0.3600000D+00 0.3600000D+00 0.3600000D+00
EXPONENTS  0.3600000D+00 0.3600000D+00 0.8264000D+02 0.1241000D+02 0.2824000D+01
EXPONENTS  0.7977000D+00 0.2581000D+00 0.8989000D-01 0.2363000D-01 0.2292000D+01
EXPONENTS  0.2292000D+01 0.2292000D+01 0.8380000D+00 0.8380000D+00 0.8380000D+00
EXPONENTS  0.2920000D+00 0.2920000D+00 0.2920000D+00 0.8480000D-01 0.8480000D-01
EXPONENTS  0.8480000D-01 0.2062000D+01 0.2062000D+01 0.2062000D+01 0.2062000D+01
EXPONENTS  0.2062000D+01 0.2062000D+01 0.6620000D+00 0.6620000D+00 0.6620000D+00
EXPONENTS  0.6620000D+00 0.6620000D+00 0.6620000D+00 0.1900000D+00 0.1900000D+00
EXPONENTS  0.1900000D+00 0.1900000D+00 0.1900000D+00 0.1900000D+00 0.1397000D+01
EXPONENTS  0.1397000D+01 0.1397000D+01 0.1397000D+01 0.1397000D+01 0.1397000D+01
EXPONENTS  0.1397000D+01 0.1397000D+01 0.1397000D+01 0.1397000D+01 0.3600000D+00
EXPONENTS  0.3600000D+00 0.3600000D+00 0.3600000D+00 0.3600000D+00 0.3600000D+00
EXPONENTS  0.3600000D+00 0.3600000D+00 0.3600000D+00 0.3600000D+00
MO    1     MO 0.0        OCC NO =    1.0000000  ORB. ENERGY =   -0.499949
  0.39207011D-01  0.72340116D-01  0.11740585D+00  0.15425011D+00  0.12879162D+00
  0.34270562D-01  0.18618218D-03 -0.19791966D-15 -0.19988846D-16 -0.10931948D-03
  0.12124751D-15 -0.13326566D-16  0.13020102D-03 -0.32270149D-16  0.38369450D-16
 -0.88126807D-04  0.63100627D-17 -0.27423991D-17  0.68502731D-04 -0.11030385D-04
 -0.11030385D-04  0.22060769D-04 -0.27070959D-15  0.15375212D-15  0.14419756D-15
  0.68761723D-05  0.68761723D-05 -0.13752345D-04  0.37856431D-16 -0.17085497D-15
 -0.77522991D-16 -0.44767481D-05 -0.44767481D-05  0.89534962D-05 -0.11269477D-17
  0.32524374D-16 -0.97628725D-17 -0.32107443D-16 -0.62163549D-16  0.28452825D-04
 -0.71209582D-16 -0.71195947D-16 -0.42679237D-04  0.16753191D-15  0.25768659D-15
 -0.42679237D-04 -0.87444991D-16 -0.75006450D-17  0.17403847D-16 -0.88249220D-05
  0.14594246D-16 -0.29741391D-17  0.13237383D-04  0.79076889D-17 -0.49237401D-16
  0.13237383D-04 -0.34042826D-17  0.41224038D-05  0.76061693D-05  0.12344586D-04
 -0.99396028D-04  0.48852453D-04 -0.14041913D-03  0.62182826D-05 -0.34391444D-15
  0.38829697D-15  0.38926358D-04  0.14050806D-15 -0.17947537D-15  0.16772938D-04
 -0.22177852D-16  0.52235923D-16 -0.12619942D-03 -0.70228319D-17  0.31638755D-17
  0.92552136D-04  0.65375623D-04  0.65375623D-04 -0.13075125D-03 -0.74914615D-15
  0.42888433D-15  0.44814060D-15 -0.69340876D-04 -0.69340876D-04  0.13868175D-03
  0.14120798D-15 -0.86721374D-16  0.12882561D-16 -0.12614799D-04 -0.12614799D-04
  0.25229597D-04 -0.86901551D-17  0.20115277D-16 -0.19495365D-16 -0.18187504D-16
 -0.97594407D-17 -0.46098989D-04 -0.16505252D-16 -0.19933621D-16  0.69148483D-04
  0.71067763D-16  0.49211943D-16  0.69148483D-04 -0.22240963D-16  0.25796475D-17
 -0.44699382D-17 -0.86318672D-05  0.10508520D-16  0.10872489D-17  0.12947801D-04
 -0.18247463D-16  0.12322566D-16  0.12947801D-04 -0.13951456D-16
END DATA
 TOTAL ENERGY =       -0.499949044805 THE VIRIAL(-V/T)=   2.00027415
