 TITLE
GAUSSIAN              1 MOL ORBITALS    114 PRIMITIVES        2 NUCLEI
  H    1    (CENTRE  1)   0.00000000  0.00000000  0.00000000  CHARGE =  1.0
  H    2    (CENTRE  2)   0.00000000  0.00000000  0.18897261  CHARGE =  0.0
CENTRE ASSIGNMENTS    1  1  1  1  1  1  1  1  1  1  1  1  1  1  1  1  1  1  1  1
CENTRE ASSIGNMENTS    1  1  1  1  1  1  1  1  1  1  1  1  1  1  1  1  1  1  1  1
CENTRE ASSIGNMENTS    1  1  1  1  1  1  1  1  1  1  1  1  1  1  1  1  1  2  2  2
CENTRE ASSIGNMENTS    2  2  2  2  2  2  2  2  2  2  2  2  2  2  2  2  2  2  2  2
CENTRE ASSIGNMENTS    2  2  2  2  2  2  2  2  2  2  2  2  2  2  2  2  2  2  2  2
CENTRE ASSIGNMENTS    2  2  2  2  2  2  2  2  2  2  2  2  2  2
TYPE ASSIGNMENTS      1  1  1  1  1  1  1  2  3  4  2  3  4  2  3  4  2  3  4  5
TYPE ASSIGNMENTS      6  7  8  9 10  5  6  7  8  9 10  5  6  7  8  9 10 11 12 13
TYPE ASSIGNMENTS     17 14 15 18 19 16 20 11 12 13 17 14 15 18 19 16 20  1  1  1
TYPE ASSIGNMENTS      1  1  1  1  2  3  4  2  3  4  2  3  4  2  3  4  5  6  7  8
TYPE ASSIGNMENTS      9 10  5  6  7  8  9 10  5  6  7  8  9 10 11 12 13 17 14 15
TYPE ASSIGNMENTS     18 19 16 20 11 12 13 17 14 15 18 19 16 20
EXPONENTS  0.8264000D+02 0.1241000D+02 0.2824000D+01 0.7977000D+00 0.2581000D+00
EXPONENTS  0.8989000D-01 0.2363000D-01 0.2292000D+01 0.2292000D+01 0.2292000D+01
EXPONENTS  0.8380000D+00 0.8380000D+00 0.8380000D+00 0.2920000D+00 0.2920000D+00
EXPONENTS  0.2920000D+00 0.8480000D-01 0.8480000D-01 0.8480000D-01 0.2062000D+01
EXPONENTS  0.2062000D+01 0.2062000D+01 0.2062000D+01 0.2062000D+01 0.2062000D+01
EXPONENTS  0.6620000D+00 0.6620000D+00 0.6620000D+00 0.6620000D+00 0.6620000D+00
EXPONENTS  0.6620000D+00 0.1900000D+00 0.1900000D+00 0.1900000D+00 0.1900000D+00
EXPONENTS  0.1900000D+00 0.1900000D+00 0.1397000D+01 0.1397000D+01 0.1397000D+01
EXPONENTS  0.1397000D+01 0.1397000D+01 0.1397000D+01 0.1397000D+01 0.1397000D+01
EXPONENTS  0.1397000D+01 0.1397000D+01 0.3600000D+00 0.3600000D+00 0.3600000D+00
EXPONENTS  0.3600000D+00 0.3600000D+00 0.3600000D+00 0.3600000D+00 0.3600000D+00
EXPONENTS  0.3600000D+00 0.3600000D+00 0.8264000D+02 0.1241000D+02 0.2824000D+01
EXPONENTS  0.7977000D+00 0.2581000D+00 0.8989000D-01 0.2363000D-01 0.2292000D+01
EXPONENTS  0.2292000D+01 0.2292000D+01 0.8380000D+00 0.8380000D+00 0.8380000D+00
EXPONENTS  0.2920000D+00 0.2920000D+00 0.2920000D+00 0.8480000D-01 0.8480000D-01
EXPONENTS  0.8480000D-01 0.2062000D+01 0.2062000D+01 0.2062000D+01 0.2062000D+01
EXPONENTS  0.2062000D+01 0.2062000D+01 0.6620000D+00 0.6620000D+00 0.6620000D+00
EXPONENTS  0.6620000D+00 0.6620000D+00 0.6620000D+00 0.1900000D+00 0.1900000D+00
EXPONENTS  0.1900000D+00 0.1900000D+00 0.1900000D+00 0.1900000D+00 0.1397000D+01
EXPONENTS  0.1397000D+01 0.1397000D+01 0.1397000D+01 0.1397000D+01 0.1397000D+01
EXPONENTS  0.1397000D+01 0.1397000D+01 0.1397000D+01 0.1397000D+01 0.3600000D+00
EXPONENTS  0.3600000D+00 0.3600000D+00 0.3600000D+00 0.3600000D+00 0.3600000D+00
EXPONENTS  0.3600000D+00 0.3600000D+00 0.3600000D+00 0.3600000D+00
MO    1     MO 0.0        OCC NO =    1.0000000  ORB. ENERGY =   -0.499949
  0.39298044D-01  0.72508079D-01  0.11767845D+00  0.41138450D-01  0.97510530D-01
  0.21662911D-01 -0.41220538D-03 -0.18143634D-12  0.48319315D-12 -0.31080003D-02
 -0.26901156D-13  0.43234013D-12 -0.10887501D-01  0.10273537D-12  0.14294515D-12
  0.24571265D-02  0.27245926D-13  0.24613613D-13  0.13265349D-02  0.10660494D-02
  0.10660494D-02 -0.21320989D-02  0.10841734D-15 -0.47307034D-13  0.19970822D-12
 -0.18571789D-05 -0.18571789D-05  0.37143578D-05  0.13066565D-13  0.32088238D-13
  0.46956272D-13 -0.65514780D-04 -0.65514780D-04  0.13102956D-03  0.34591187D-14
  0.86970857D-14  0.80760973D-14 -0.14605153D-14 -0.44849717D-14 -0.72680035D-04
  0.97101961D-15  0.19734501D-15  0.10902005D-03  0.34105264D-14  0.13257570D-13
  0.10902005D-03 -0.65842565D-14 -0.34310109D-15  0.30299565D-15 -0.19073624D-04
 -0.14067548D-14 -0.13430710D-14  0.28610436D-04  0.24360580D-14  0.43408404D-15
  0.28610436D-04  0.81607917D-15  0.72408128D-04  0.13359887D-03  0.21682698D-03
  0.11101379D+00  0.31228881D-01  0.12430810D-01  0.62064857D-03  0.17405401D-12
 -0.47823488D-12  0.53498164D-02  0.22770197D-13 -0.43199954D-12 -0.23482670D-01
 -0.10344859D-12 -0.14420267D-12 -0.65088350D-02 -0.27214137D-13 -0.24466458D-13
 -0.17678309D-02 -0.16714577D-03 -0.16714577D-03  0.33429154D-03  0.58437646D-15
 -0.10918268D-12  0.24845383D-12 -0.62412343D-03 -0.62412343D-03  0.12482469D-02
 -0.12365051D-13 -0.24559965D-13  0.54284018D-13 -0.34004230D-04 -0.34004230D-04
  0.68008460D-04 -0.34910239D-14 -0.19207982D-14 -0.10869527D-14 -0.32535092D-14
  0.68478035D-14 -0.20469100D-03 -0.55457861D-14  0.20956876D-14  0.30703651D-03
  0.15306314D-13 -0.22639098D-13  0.30703651D-03  0.79263298D-14 -0.11129732D-15
 -0.42636177D-15  0.19464007D-04  0.92892561D-15  0.11101156D-14 -0.29196011D-04
 -0.59503366D-15  0.16896968D-15 -0.29196011D-04  0.57996639D-15
END DATA
 TOTAL ENERGY =       -0.499948899476 THE VIRIAL(-V/T)=   2.00027167
