 TITLE
GAUSSIAN              1 MOL ORBITALS    114 PRIMITIVES        2 NUCLEI
  H    1    (CENTRE  1)   0.00000000  0.00000000  0.00000000  CHARGE =  1.0
  H    2    (CENTRE  2)   0.00000000  0.00000000  1.32280829  CHARGE =  0.0
CENTRE ASSIGNMENTS    1  1  1  1  1  1  1  1  1  1  1  1  1  1  1  1  1  1  1  1
CENTRE ASSIGNMENTS    1  1  1  1  1  1  1  1  1  1  1  1  1  1  1  1  1  1  1  1
CENTRE ASSIGNMENTS    1  1  1  1  1  1  1  1  1  1  1  1  1  1  1  1  1  2  2  2
CENTRE ASSIGNMENTS    2  2  2  2  2  2  2  2  2  2  2  2  2  2  2  2  2  2  2  2
CENTRE ASSIGNMENTS    2  2  2  2  2  2  2  2  2  2  2  2  2  2  2  2  2  2  2  2
CENTRE ASSIGNMENTS    2  2  2  2  2  2  2  2  2  2  2  2  2  2
TYPE ASSIGNMENTS      1  1  1  1  1  1  1  2  3  4  2  3  4  2  3  4  2  3  4  5
TYPE ASSIGNMENTS      6  7  8  9 10  5  6  7  8  9 10  5  6  7  8  9 10 11 12 13
TYPE ASSIGNMENTS     17 14 15 18 19 16 20 11 12 13 17 14 15 18 19 16 20  1  1  1
TYPE ASSIGNMENTS      1  1  1  1  2  3  4  2  3  4  2  3  4  2  3  4  5  6  7  8
TYPE ASSIGNMENTS      9 10  5  6  7  8  9 10  5  6  7  8  9 10 11 12 13 17 14 15
TYPE ASSIGNMENTS     18 19 16 20 11 12 13 17 14 15 18 19 16 20
EXPONENTS  0.8264000D+02 0.1241000D+02 0.2824000D+01 0.7977000D+00 0.2581000D+00
EXPONENTS  0.8989000D-01 0.2363000D-01 0.2292000D+01 0.2292000D+01 0.2292000D+01
EXPONENTS  0.8380000D+00 0.8380000D+00 0.8380000D+00 0.2920000D+00 0.2920000D+00
EXPONENTS  0.2920000D+00 0.8480000D-01 0.8480000D-01 0.8480000D-01 0.2062000D+01
EXPONENTS  0.2062000D+01 0.2062000D+01 0.2062000D+01 0.2062000D+01 0.2062000D+01
EXPONENTS  0.6620000D+00 0.6620000D+00 0.6620000D+00 0.6620000D+00 0.6620000D+00
EXPONENTS  0.6620000D+00 0.1900000D+00 0.1900000D+00 0.1900000D+00 0.1900000D+00
EXPONENTS  0.1900000D+00 0.1900000D+00 0.1397000D+01 0.1397000D+01 0.1397000D+01
EXPONENTS  0.1397000D+01 0.1397000D+01 0.1397000D+01 0.1397000D+01 0.1397000D+01
EXPONENTS  0.1397000D+01 0.1397000D+01 0.3600000D+00 0.3600000D+00 0.3600000D+00
EXPONENTS  0.3600000D+00 0.3600000D+00 0.3600000D+00 0.3600000D+00 0.3600000D+00
EXPONENTS  0.3600000D+00 0.3600000D+00 0.8264000D+02 0.1241000D+02 0.2824000D+01
EXPONENTS  0.7977000D+00 0.2581000D+00 0.8989000D-01 0.2363000D-01 0.2292000D+01
EXPONENTS  0.2292000D+01 0.2292000D+01 0.8380000D+00 0.8380000D+00 0.8380000D+00
EXPONENTS  0.2920000D+00 0.2920000D+00 0.2920000D+00 0.8480000D-01 0.8480000D-01
EXPONENTS  0.8480000D-01 0.2062000D+01 0.2062000D+01 0.2062000D+01 0.2062000D+01
EXPONENTS  0.2062000D+01 0.2062000D+01 0.6620000D+00 0.6620000D+00 0.6620000D+00
EXPONENTS  0.6620000D+00 0.6620000D+00 0.6620000D+00 0.1900000D+00 0.1900000D+00
EXPONENTS  0.1900000D+00 0.1900000D+00 0.1900000D+00 0.1900000D+00 0.1397000D+01
EXPONENTS  0.1397000D+01 0.1397000D+01 0.1397000D+01 0.1397000D+01 0.1397000D+01
EXPONENTS  0.1397000D+01 0.1397000D+01 0.1397000D+01 0.1397000D+01 0.3600000D+00
EXPONENTS  0.3600000D+00 0.3600000D+00 0.3600000D+00 0.3600000D+00 0.3600000D+00
EXPONENTS  0.3600000D+00 0.3600000D+00 0.3600000D+00 0.3600000D+00
MO    1     MO 0.0        OCC NO =    1.0000000  ORB. ENERGY =   -0.499950
  0.39256432D-01  0.72431300D-01  0.11755384D+00  0.15286316D+00  0.12984669D+00
  0.40633773D-01  0.30483964D-03  0.22156354D-14 -0.16799639D-15 -0.10421112D-02
 -0.87151341D-14  0.32930587D-14 -0.40081620D-02 -0.11635099D-13  0.25916999D-14
 -0.93372979D-03 -0.17679653D-14  0.18763550D-15  0.68300538D-03  0.12955241D-02
  0.12955241D-02 -0.25910482D-02  0.99334444D-15 -0.26881947D-14  0.99467070D-15
  0.91167926D-03  0.91167926D-03 -0.18233585D-02 -0.69658967D-16 -0.13805261D-13
  0.47541257D-14  0.35976838D-04  0.35976838D-04 -0.71953676D-04  0.78927943D-16
 -0.22350641D-14  0.31257374D-15  0.26629015D-14 -0.93335398D-15 -0.11758724D-02
  0.25996838D-14 -0.11671195D-14  0.17638086D-02 -0.10588388D-13  0.39671814D-14
  0.17638086D-02 -0.14459360D-15  0.30921957D-15 -0.84083851D-16 -0.82821273D-04
  0.31200605D-15 -0.62996761D-16  0.12423191D-03 -0.12396648D-14  0.31524831D-15
  0.12423191D-03  0.46814111D-16 -0.12668976D-03 -0.23375289D-03 -0.37937396D-03
  0.44903535D-02 -0.27979321D-03 -0.68817551D-02 -0.95961758D-04 -0.14852722D-14
  0.84622738D-15 -0.81269040D-03  0.87594648D-14 -0.37765154D-14 -0.45391655D-02
  0.11794072D-13 -0.23930417D-14  0.21855746D-02  0.17486734D-14 -0.21198687D-15
  0.78054975D-03 -0.21482074D-02 -0.21482074D-02  0.42964149D-02  0.86361821D-15
 -0.25840576D-14  0.19707102D-14  0.15801922D-03  0.15801922D-03 -0.31603844D-03
 -0.17191910D-15 -0.13452126D-13  0.44389960D-14  0.11924543D-03  0.11924543D-03
 -0.23849086D-03 -0.35213816D-16 -0.21202664D-14  0.40018747D-15 -0.24189801D-14
  0.91506323D-15 -0.10161872D-02 -0.23447712D-14  0.10045712D-14  0.15242808D-02
  0.96017116D-14 -0.37497609D-14  0.15242808D-02  0.58459164D-15 -0.26530998D-15
  0.79620427D-16  0.89875463D-04 -0.27477876D-15  0.71527352D-16 -0.13481319D-03
  0.10707087D-14 -0.31038863D-15 -0.13481319D-03  0.72653080D-16
END DATA
 TOTAL ENERGY =       -0.499950221670 THE VIRIAL(-V/T)=   2.00027822
