 TITLE
GAUSSIAN              1 MOL ORBITALS    114 PRIMITIVES        2 NUCLEI
  H    1    (CENTRE  1)   0.00000000  0.00000000  0.00000000  CHARGE =  1.0
  H    2    (CENTRE  2)   0.00000000  0.00000000  2.26767135  CHARGE =  0.0
CENTRE ASSIGNMENTS    1  1  1  1  1  1  1  1  1  1  1  1  1  1  1  1  1  1  1  1
CENTRE ASSIGNMENTS    1  1  1  1  1  1  1  1  1  1  1  1  1  1  1  1  1  1  1  1
CENTRE ASSIGNMENTS    1  1  1  1  1  1  1  1  1  1  1  1  1  1  1  1  1  2  2  2
CENTRE ASSIGNMENTS    2  2  2  2  2  2  2  2  2  2  2  2  2  2  2  2  2  2  2  2
CENTRE ASSIGNMENTS    2  2  2  2  2  2  2  2  2  2  2  2  2  2  2  2  2  2  2  2
CENTRE ASSIGNMENTS    2  2  2  2  2  2  2  2  2  2  2  2  2  2
TYPE ASSIGNMENTS      1  1  1  1  1  1  1  2  3  4  2  3  4  2  3  4  2  3  4  5
TYPE ASSIGNMENTS      6  7  8  9 10  5  6  7  8  9 10  5  6  7  8  9 10 11 12 13
TYPE ASSIGNMENTS     17 14 15 18 19 16 20 11 12 13 17 14 15 18 19 16 20  1  1  1
TYPE ASSIGNMENTS      1  1  1  1  2  3  4  2  3  4  2  3  4  2  3  4  5  6  7  8
TYPE ASSIGNMENTS      9 10  5  6  7  8  9 10  5  6  7  8  9 10 11 12 13 17 14 15
TYPE ASSIGNMENTS     18 19 16 20 11 12 13 17 14 15 18 19 16 20
EXPONENTS  0.8264000D+02 0.1241000D+02 0.2824000D+01 0.7977000D+00 0.2581000D+00
EXPONENTS  0.8989000D-01 0.2363000D-01 0.2292000D+01 0.2292000D+01 0.2292000D+01
EXPONENTS  0.8380000D+00 0.8380000D+00 0.8380000D+00 0.2920000D+00 0.2920000D+00
EXPONENTS  0.2920000D+00 0.8480000D-01 0.8480000D-01 0.8480000D-01 0.2062000D+01
EXPONENTS  0.2062000D+01 0.2062000D+01 0.2062000D+01 0.2062000D+01 0.2062000D+01
EXPONENTS  0.6620000D+00 0.6620000D+00 0.6620000D+00 0.6620000D+00 0.6620000D+00
EXPONENTS  0.6620000D+00 0.1900000D+00 0.1900000D+00 0.1900000D+00 0.1900000D+00
EXPONENTS  0.1900000D+00 0.1900000D+00 0.1397000D+01 0.1397000D+01 0.1397000D+01
EXPONENTS  0.1397000D+01 0.1397000D+01 0.1397000D+01 0.1397000D+01 0.1397000D+01
EXPONENTS  0.1397000D+01 0.1397000D+01 0.3600000D+00 0.3600000D+00 0.3600000D+00
EXPONENTS  0.3600000D+00 0.3600000D+00 0.3600000D+00 0.3600000D+00 0.3600000D+00
EXPONENTS  0.3600000D+00 0.3600000D+00 0.8264000D+02 0.1241000D+02 0.2824000D+01
EXPONENTS  0.7977000D+00 0.2581000D+00 0.8989000D-01 0.2363000D-01 0.2292000D+01
EXPONENTS  0.2292000D+01 0.2292000D+01 0.8380000D+00 0.8380000D+00 0.8380000D+00
EXPONENTS  0.2920000D+00 0.2920000D+00 0.2920000D+00 0.8480000D-01 0.8480000D-01
EXPONENTS  0.8480000D-01 0.2062000D+01 0.2062000D+01 0.2062000D+01 0.2062000D+01
EXPONENTS  0.2062000D+01 0.2062000D+01 0.6620000D+00 0.6620000D+00 0.6620000D+00
EXPONENTS  0.6620000D+00 0.6620000D+00 0.6620000D+00 0.1900000D+00 0.1900000D+00
EXPONENTS  0.1900000D+00 0.1900000D+00 0.1900000D+00 0.1900000D+00 0.1397000D+01
EXPONENTS  0.1397000D+01 0.1397000D+01 0.1397000D+01 0.1397000D+01 0.1397000D+01
EXPONENTS  0.1397000D+01 0.1397000D+01 0.1397000D+01 0.1397000D+01 0.3600000D+00
EXPONENTS  0.3600000D+00 0.3600000D+00 0.3600000D+00 0.3600000D+00 0.3600000D+00
EXPONENTS  0.3600000D+00 0.3600000D+00 0.3600000D+00 0.3600000D+00
MO    1     MO 0.0        OCC NO =    1.0000000  ORB. ENERGY =   -0.499951
  0.39192699D-01  0.72313707D-01  0.11736299D+00  0.15425957D+00  0.13043026D+00
  0.38799247D-01  0.31561334D-03  0.28309101D-15 -0.90175554D-15 -0.11755194D-03
 -0.55904247D-16  0.10534188D-14  0.16434381D-03  0.49299946D-15 -0.12105276D-14
  0.10831073D-02  0.13613788D-15 -0.13586584D-15  0.87681531D-03 -0.42109644D-04
 -0.42109644D-04  0.84219287D-04  0.39275893D-15 -0.19437657D-15  0.97352845D-15
 -0.76668143D-04 -0.76668143D-04  0.15333629D-03 -0.16797075D-15  0.29378310D-15
 -0.70794931D-15 -0.33297883D-04 -0.33297883D-04  0.66595766D-04  0.19983463D-16
  0.24598825D-15 -0.49769491D-15  0.11227214D-15 -0.57665597D-16  0.16194570D-03
  0.25474313D-15  0.21435778D-15 -0.24291855D-03 -0.59155954D-15 -0.41360993D-16
 -0.24291855D-03  0.26146231D-15 -0.55414133D-16  0.10626098D-15 -0.37095804D-04
 -0.81512051D-17  0.54572858D-16  0.55643706D-04  0.17439360D-15 -0.37335579D-15
  0.55643706D-04 -0.46662071D-16  0.37376094D-04  0.68961925D-04  0.11192315D-03
 -0.95835679D-04 -0.20829751D-03 -0.50791057D-02 -0.10108212D-03 -0.62862635D-15
 -0.71429007D-16 -0.93945070D-04  0.30472595D-15 -0.12108640D-15 -0.74288292D-03
 -0.48513224D-15  0.11803312D-14  0.17029794D-02 -0.71477581D-16  0.20262481D-15
  0.99394107D-03  0.14582123D-03  0.14582123D-03 -0.29164246D-03 -0.17966402D-15
  0.12416565D-15  0.14218666D-14  0.18501914D-04  0.18501914D-04 -0.37003829D-04
  0.19212038D-16  0.27661335D-15 -0.10199186D-14  0.16382985D-03  0.16382985D-03
 -0.32765970D-03 -0.75489461D-17  0.18091312D-15 -0.42208343D-15 -0.17202697D-15
 -0.90423136D-16  0.68733665D-03 -0.15859228D-15 -0.11290726D-15 -0.10310050D-02
  0.67467319D-15  0.38417667D-15 -0.10310050D-02 -0.38603685D-16  0.17227851D-16
 -0.55768913D-16  0.19314260D-04  0.48531156D-16 -0.42774474D-16 -0.28971390D-04
 -0.10021471D-15  0.21008121D-15 -0.28971390D-04 -0.42062826D-16
END DATA
 TOTAL ENERGY =       -0.499950745416 THE VIRIAL(-V/T)=   2.00026863
