 TITLE
GAUSSIAN              1 MOL ORBITALS    114 PRIMITIVES        2 NUCLEI
  H    1    (CENTRE  1)   0.00000000  0.00000000  0.00000000  CHARGE =  1.0
  H    2    (CENTRE  2)   0.00000000  0.00000000  0.56691784  CHARGE =  0.0
CENTRE ASSIGNMENTS    1  1  1  1  1  1  1  1  1  1  1  1  1  1  1  1  1  1  1  1
CENTRE ASSIGNMENTS    1  1  1  1  1  1  1  1  1  1  1  1  1  1  1  1  1  1  1  1
CENTRE ASSIGNMENTS    1  1  1  1  1  1  1  1  1  1  1  1  1  1  1  1  1  2  2  2
CENTRE ASSIGNMENTS    2  2  2  2  2  2  2  2  2  2  2  2  2  2  2  2  2  2  2  2
CENTRE ASSIGNMENTS    2  2  2  2  2  2  2  2  2  2  2  2  2  2  2  2  2  2  2  2
CENTRE ASSIGNMENTS    2  2  2  2  2  2  2  2  2  2  2  2  2  2
TYPE ASSIGNMENTS      1  1  1  1  1  1  1  2  3  4  2  3  4  2  3  4  2  3  4  5
TYPE ASSIGNMENTS      6  7  8  9 10  5  6  7  8  9 10  5  6  7  8  9 10 11 12 13
TYPE ASSIGNMENTS     17 14 15 18 19 16 20 11 12 13 17 14 15 18 19 16 20  1  1  1
TYPE ASSIGNMENTS      1  1  1  1  2  3  4  2  3  4  2  3  4  2  3  4  5  6  7  8
TYPE ASSIGNMENTS      9 10  5  6  7  8  9 10  5  6  7  8  9 10 11 12 13 17 14 15
TYPE ASSIGNMENTS     18 19 16 20 11 12 13 17 14 15 18 19 16 20
EXPONENTS  0.8264000D+02 0.1241000D+02 0.2824000D+01 0.7977000D+00 0.2581000D+00
EXPONENTS  0.8989000D-01 0.2363000D-01 0.2292000D+01 0.2292000D+01 0.2292000D+01
EXPONENTS  0.8380000D+00 0.8380000D+00 0.8380000D+00 0.2920000D+00 0.2920000D+00
EXPONENTS  0.2920000D+00 0.8480000D-01 0.8480000D-01 0.8480000D-01 0.2062000D+01
EXPONENTS  0.2062000D+01 0.2062000D+01 0.2062000D+01 0.2062000D+01 0.2062000D+01
EXPONENTS  0.6620000D+00 0.6620000D+00 0.6620000D+00 0.6620000D+00 0.6620000D+00
EXPONENTS  0.6620000D+00 0.1900000D+00 0.1900000D+00 0.1900000D+00 0.1900000D+00
EXPONENTS  0.1900000D+00 0.1900000D+00 0.1397000D+01 0.1397000D+01 0.1397000D+01
EXPONENTS  0.1397000D+01 0.1397000D+01 0.1397000D+01 0.1397000D+01 0.1397000D+01
EXPONENTS  0.1397000D+01 0.1397000D+01 0.3600000D+00 0.3600000D+00 0.3600000D+00
EXPONENTS  0.3600000D+00 0.3600000D+00 0.3600000D+00 0.3600000D+00 0.3600000D+00
EXPONENTS  0.3600000D+00 0.3600000D+00 0.8264000D+02 0.1241000D+02 0.2824000D+01
EXPONENTS  0.7977000D+00 0.2581000D+00 0.8989000D-01 0.2363000D-01 0.2292000D+01
EXPONENTS  0.2292000D+01 0.2292000D+01 0.8380000D+00 0.8380000D+00 0.8380000D+00
EXPONENTS  0.2920000D+00 0.2920000D+00 0.2920000D+00 0.8480000D-01 0.8480000D-01
EXPONENTS  0.8480000D-01 0.2062000D+01 0.2062000D+01 0.2062000D+01 0.2062000D+01
EXPONENTS  0.2062000D+01 0.2062000D+01 0.6620000D+00 0.6620000D+00 0.6620000D+00
EXPONENTS  0.6620000D+00 0.6620000D+00 0.6620000D+00 0.1900000D+00 0.1900000D+00
EXPONENTS  0.1900000D+00 0.1900000D+00 0.1900000D+00 0.1900000D+00 0.1397000D+01
EXPONENTS  0.1397000D+01 0.1397000D+01 0.1397000D+01 0.1397000D+01 0.1397000D+01
EXPONENTS  0.1397000D+01 0.1397000D+01 0.1397000D+01 0.1397000D+01 0.3600000D+00
EXPONENTS  0.3600000D+00 0.3600000D+00 0.3600000D+00 0.3600000D+00 0.3600000D+00
EXPONENTS  0.3600000D+00 0.3600000D+00 0.3600000D+00 0.3600000D+00
MO    1     MO 0.0        OCC NO =    1.0000000  ORB. ENERGY =   -0.499949
  0.39239400D-01  0.72399876D-01  0.11750284D+00  0.10123645D+00  0.99460739D-01
  0.70515966D-01  0.61661621D-03  0.36545788D-13  0.10815251D-13 -0.29649668D-02
  0.10365790D-12  0.22974003D-13 -0.24879930D-01  0.55128464D-13  0.96367338D-14
 -0.45683656D-02  0.57909381D-14  0.18487291D-14  0.20007425D-02 -0.11493476D-03
 -0.11493476D-03  0.22986952D-03 -0.27894991D-14  0.70926699D-13  0.26476788D-13
  0.69472846D-03  0.69472846D-03 -0.13894569D-02 -0.43751775D-14  0.43740574D-13
  0.10832494D-13 -0.11915524D-04 -0.11915524D-04  0.23831047D-04 -0.85930184D-15
  0.40118107D-14  0.10535342D-14 -0.48946904D-14 -0.19496648D-14  0.15871192D-02
 -0.47441374D-14 -0.24938791D-14 -0.23806788D-02  0.19428209D-13  0.83428736D-14
 -0.23806788D-02 -0.42709049D-14 -0.35050076D-15 -0.10021572D-15 -0.36704908D-06
 -0.37211188D-15 -0.10484121D-15  0.55057361D-06  0.14236141D-14  0.40548837D-15
  0.55057361D-06 -0.61331437D-15  0.48532543D-04  0.89546478D-04  0.14533126D-03
  0.52624032D-01  0.29312157D-01 -0.36471569D-01 -0.41149936D-03 -0.36120050D-13
 -0.13571446D-13 -0.21697865D-02 -0.10386944D-12 -0.23855685D-13 -0.25529522D-01
 -0.55269235D-13 -0.96621683D-14 -0.49167866D-02 -0.57834147D-14 -0.18469306D-14
  0.12592093D-02  0.53858105D-03  0.53858105D-03 -0.10771621D-02  0.28086831D-14
  0.72711832D-13  0.18233074D-13 -0.78333419D-03 -0.78333419D-03  0.15666684D-02
  0.42911858D-14  0.42942484D-13  0.70322192D-14 -0.25086997D-04 -0.25086997D-04
  0.50173994D-04  0.88167693D-15  0.34903220D-14  0.43648746D-15  0.49886364D-14
  0.24775937D-15  0.16323543D-02  0.47910339D-14  0.92120132D-15 -0.24485314D-02
 -0.19756943D-13 -0.16644794D-14 -0.24485314D-02 -0.49025466D-14  0.29453088D-15
  0.66485863D-17  0.15671548D-04  0.34396645D-15  0.17876017D-16 -0.23507321D-04
 -0.12275591D-14 -0.37821776D-16 -0.23507321D-04 -0.53963590D-15
END DATA
 TOTAL ENERGY =       -0.499948841026 THE VIRIAL(-V/T)=   2.00027672
