 TITLE
GAUSSIAN              1 MOL ORBITALS    114 PRIMITIVES        2 NUCLEI
  H    1    (CENTRE  1)   0.00000000  0.00000000  0.00000000  CHARGE =  1.0
  H    2    (CENTRE  2)   0.00000000  0.00000000  9.44863062  CHARGE =  0.0
CENTRE ASSIGNMENTS    1  1  1  1  1  1  1  1  1  1  1  1  1  1  1  1  1  1  1  1
CENTRE ASSIGNMENTS    1  1  1  1  1  1  1  1  1  1  1  1  1  1  1  1  1  1  1  1
CENTRE ASSIGNMENTS    1  1  1  1  1  1  1  1  1  1  1  1  1  1  1  1  1  2  2  2
CENTRE ASSIGNMENTS    2  2  2  2  2  2  2  2  2  2  2  2  2  2  2  2  2  2  2  2
CENTRE ASSIGNMENTS    2  2  2  2  2  2  2  2  2  2  2  2  2  2  2  2  2  2  2  2
CENTRE ASSIGNMENTS    2  2  2  2  2  2  2  2  2  2  2  2  2  2
TYPE ASSIGNMENTS      1  1  1  1  1  1  1  2  3  4  2  3  4  2  3  4  2  3  4  5
TYPE ASSIGNMENTS      6  7  8  9 10  5  6  7  8  9 10  5  6  7  8  9 10 11 12 13
TYPE ASSIGNMENTS     17 14 15 18 19 16 20 11 12 13 17 14 15 18 19 16 20  1  1  1
TYPE ASSIGNMENTS      1  1  1  1  2  3  4  2  3  4  2  3  4  2  3  4  5  6  7  8
TYPE ASSIGNMENTS      9 10  5  6  7  8  9 10  5  6  7  8  9 10 11 12 13 17 14 15
TYPE ASSIGNMENTS     18 19 16 20 11 12 13 17 14 15 18 19 16 20
EXPONENTS  0.8264000D+02 0.1241000D+02 0.2824000D+01 0.7977000D+00 0.2581000D+00
EXPONENTS  0.8989000D-01 0.2363000D-01 0.2292000D+01 0.2292000D+01 0.2292000D+01
EXPONENTS  0.8380000D+00 0.8380000D+00 0.8380000D+00 0.2920000D+00 0.2920000D+00
EXPONENTS  0.2920000D+00 0.8480000D-01 0.8480000D-01 0.8480000D-01 0.2062000D+01
EXPONENTS  0.2062000D+01 0.2062000D+01 0.2062000D+01 0.2062000D+01 0.2062000D+01
EXPONENTS  0.6620000D+00 0.6620000D+00 0.6620000D+00 0.6620000D+00 0.6620000D+00
EXPONENTS  0.6620000D+00 0.1900000D+00 0.1900000D+00 0.1900000D+00 0.1900000D+00
EXPONENTS  0.1900000D+00 0.1900000D+00 0.1397000D+01 0.1397000D+01 0.1397000D+01
EXPONENTS  0.1397000D+01 0.1397000D+01 0.1397000D+01 0.1397000D+01 0.1397000D+01
EXPONENTS  0.1397000D+01 0.1397000D+01 0.3600000D+00 0.3600000D+00 0.3600000D+00
EXPONENTS  0.3600000D+00 0.3600000D+00 0.3600000D+00 0.3600000D+00 0.3600000D+00
EXPONENTS  0.3600000D+00 0.3600000D+00 0.8264000D+02 0.1241000D+02 0.2824000D+01
EXPONENTS  0.7977000D+00 0.2581000D+00 0.8989000D-01 0.2363000D-01 0.2292000D+01
EXPONENTS  0.2292000D+01 0.2292000D+01 0.8380000D+00 0.8380000D+00 0.8380000D+00
EXPONENTS  0.2920000D+00 0.2920000D+00 0.2920000D+00 0.8480000D-01 0.8480000D-01
EXPONENTS  0.8480000D-01 0.2062000D+01 0.2062000D+01 0.2062000D+01 0.2062000D+01
EXPONENTS  0.2062000D+01 0.2062000D+01 0.6620000D+00 0.6620000D+00 0.6620000D+00
EXPONENTS  0.6620000D+00 0.6620000D+00 0.6620000D+00 0.1900000D+00 0.1900000D+00
EXPONENTS  0.1900000D+00 0.1900000D+00 0.1900000D+00 0.1900000D+00 0.1397000D+01
EXPONENTS  0.1397000D+01 0.1397000D+01 0.1397000D+01 0.1397000D+01 0.1397000D+01
EXPONENTS  0.1397000D+01 0.1397000D+01 0.1397000D+01 0.1397000D+01 0.3600000D+00
EXPONENTS  0.3600000D+00 0.3600000D+00 0.3600000D+00 0.3600000D+00 0.3600000D+00
EXPONENTS  0.3600000D+00 0.3600000D+00 0.3600000D+00 0.3600000D+00
MO    1     MO 0.0        OCC NO =    1.0000000  ORB. ENERGY =   -0.499948
  0.39212589D-01  0.72350407D-01  0.11742255D+00  0.15418912D+00  0.12888796D+00
  0.34168563D-01  0.16854952D-03  0.23671464D-15 -0.40628752D-16  0.11617169D-04
 -0.20148991D-15  0.24946326D-16 -0.14179784D-04  0.15415602D-15 -0.11484389D-17
  0.10275394D-04 -0.30236607D-16  0.19299955D-17 -0.42929232D-05  0.10916191D-05
  0.10916191D-05 -0.21832382D-05  0.16234153D-15  0.27572649D-15 -0.20251518D-15
 -0.70870524D-06 -0.70870524D-06  0.14174105D-05 -0.31650877D-16 -0.71394959D-16
  0.10013752D-15  0.24661523D-06  0.24661523D-06 -0.49323047D-06  0.42345413D-17
  0.13141407D-17 -0.17797759D-16 -0.88761150D-16 -0.11615165D-16  0.15709638D-06
  0.83062178D-16 -0.99007534D-16 -0.23564458D-06  0.18322127D-15  0.13385303D-15
 -0.23564458D-06 -0.11406484D-16  0.67148754D-17 -0.70971584D-17 -0.40293682D-07
 -0.13711761D-16  0.10271981D-17  0.60440523D-07 -0.64328650D-17  0.20264277D-16
  0.60440523D-07 -0.53090671D-17  0.98156235D-06  0.18110621D-05  0.29392999D-05
 -0.67231411D-05 -0.11081432D-04  0.20778960D-04  0.67619758D-05  0.26665842D-15
 -0.12111705D-15 -0.46535605D-04 -0.19361933D-15  0.84670678D-16  0.54047806D-04
  0.63285607D-16 -0.40759705D-16 -0.28108890D-04 -0.12691210D-16  0.59508431D-17
 -0.12446769D-04  0.65484008D-05  0.65484008D-05 -0.13096802D-04 -0.55389683D-16
  0.62050586D-15  0.17448917D-14 -0.27452013D-05 -0.27452013D-05  0.54904026D-05
  0.98348482D-16 -0.71767730D-16 -0.13177361D-15 -0.20505295D-05 -0.20505295D-05
  0.41010590D-05 -0.73424293D-17  0.94617771D-17  0.10617663D-16  0.78127250D-18
  0.30578241D-16 -0.51643923D-05  0.26934247D-16  0.91746828D-17  0.77465884D-05
 -0.29278065D-16 -0.10090941D-15  0.77465884D-05 -0.18439534D-16  0.46635990D-19
  0.44914330D-17  0.78631778D-06 -0.13380838D-18  0.60490298D-17 -0.11794767D-05
 -0.60995852D-20 -0.19523329D-16 -0.11794767D-05  0.14347818D-18
END DATA
 TOTAL ENERGY =       -0.499948388544 THE VIRIAL(-V/T)=   2.00028038
