 TITLE
GAUSSIAN              1 MOL ORBITALS    114 PRIMITIVES        2 NUCLEI
  H    1    (CENTRE  1)   0.00000000  0.00000000  0.00000000  CHARGE =  1.0
  H    2    (CENTRE  2)   0.00000000  0.00000000  5.29123315  CHARGE =  0.0
CENTRE ASSIGNMENTS    1  1  1  1  1  1  1  1  1  1  1  1  1  1  1  1  1  1  1  1
CENTRE ASSIGNMENTS    1  1  1  1  1  1  1  1  1  1  1  1  1  1  1  1  1  1  1  1
CENTRE ASSIGNMENTS    1  1  1  1  1  1  1  1  1  1  1  1  1  1  1  1  1  2  2  2
CENTRE ASSIGNMENTS    2  2  2  2  2  2  2  2  2  2  2  2  2  2  2  2  2  2  2  2
CENTRE ASSIGNMENTS    2  2  2  2  2  2  2  2  2  2  2  2  2  2  2  2  2  2  2  2
CENTRE ASSIGNMENTS    2  2  2  2  2  2  2  2  2  2  2  2  2  2
TYPE ASSIGNMENTS      1  1  1  1  1  1  1  2  3  4  2  3  4  2  3  4  2  3  4  5
TYPE ASSIGNMENTS      6  7  8  9 10  5  6  7  8  9 10  5  6  7  8  9 10 11 12 13
TYPE ASSIGNMENTS     17 14 15 18 19 16 20 11 12 13 17 14 15 18 19 16 20  1  1  1
TYPE ASSIGNMENTS      1  1  1  1  2  3  4  2  3  4  2  3  4  2  3  4  5  6  7  8
TYPE ASSIGNMENTS      9 10  5  6  7  8  9 10  5  6  7  8  9 10 11 12 13 17 14 15
TYPE ASSIGNMENTS     18 19 16 20 11 12 13 17 14 15 18 19 16 20
EXPONENTS  0.8264000D+02 0.1241000D+02 0.2824000D+01 0.7977000D+00 0.2581000D+00
EXPONENTS  0.8989000D-01 0.2363000D-01 0.2292000D+01 0.2292000D+01 0.2292000D+01
EXPONENTS  0.8380000D+00 0.8380000D+00 0.8380000D+00 0.2920000D+00 0.2920000D+00
EXPONENTS  0.2920000D+00 0.8480000D-01 0.8480000D-01 0.8480000D-01 0.2062000D+01
EXPONENTS  0.2062000D+01 0.2062000D+01 0.2062000D+01 0.2062000D+01 0.2062000D+01
EXPONENTS  0.6620000D+00 0.6620000D+00 0.6620000D+00 0.6620000D+00 0.6620000D+00
EXPONENTS  0.6620000D+00 0.1900000D+00 0.1900000D+00 0.1900000D+00 0.1900000D+00
EXPONENTS  0.1900000D+00 0.1900000D+00 0.1397000D+01 0.1397000D+01 0.1397000D+01
EXPONENTS  0.1397000D+01 0.1397000D+01 0.1397000D+01 0.1397000D+01 0.1397000D+01
EXPONENTS  0.1397000D+01 0.1397000D+01 0.3600000D+00 0.3600000D+00 0.3600000D+00
EXPONENTS  0.3600000D+00 0.3600000D+00 0.3600000D+00 0.3600000D+00 0.3600000D+00
EXPONENTS  0.3600000D+00 0.3600000D+00 0.8264000D+02 0.1241000D+02 0.2824000D+01
EXPONENTS  0.7977000D+00 0.2581000D+00 0.8989000D-01 0.2363000D-01 0.2292000D+01
EXPONENTS  0.2292000D+01 0.2292000D+01 0.8380000D+00 0.8380000D+00 0.8380000D+00
EXPONENTS  0.2920000D+00 0.2920000D+00 0.2920000D+00 0.8480000D-01 0.8480000D-01
EXPONENTS  0.8480000D-01 0.2062000D+01 0.2062000D+01 0.2062000D+01 0.2062000D+01
EXPONENTS  0.2062000D+01 0.2062000D+01 0.6620000D+00 0.6620000D+00 0.6620000D+00
EXPONENTS  0.6620000D+00 0.6620000D+00 0.6620000D+00 0.1900000D+00 0.1900000D+00
EXPONENTS  0.1900000D+00 0.1900000D+00 0.1900000D+00 0.1900000D+00 0.1397000D+01
EXPONENTS  0.1397000D+01 0.1397000D+01 0.1397000D+01 0.1397000D+01 0.1397000D+01
EXPONENTS  0.1397000D+01 0.1397000D+01 0.1397000D+01 0.1397000D+01 0.3600000D+00
EXPONENTS  0.3600000D+00 0.3600000D+00 0.3600000D+00 0.3600000D+00 0.3600000D+00
EXPONENTS  0.3600000D+00 0.3600000D+00 0.3600000D+00 0.3600000D+00
MO    1     MO 0.0        OCC NO =    1.0000000  ORB. ENERGY =   -0.499949
  0.39208355D-01  0.72342595D-01  0.11740987D+00  0.15423204D+00  0.12883253D+00
  0.34211975D-01  0.18251553D-03  0.26797466D-16 -0.17223359D-15 -0.11096665D-03
 -0.17297461D-15  0.11698265D-15  0.12997733D-03  0.64013941D-16 -0.61797087D-16
 -0.81411623D-04 -0.78183640D-17 -0.67608834D-18  0.43563171D-04 -0.11711243D-05
 -0.11711243D-05  0.23422487D-05  0.17521546D-15  0.94027076D-16  0.36568040D-16
 -0.37211089D-06 -0.37211089D-06  0.74422179D-06 -0.34833411D-16  0.89604534D-16
 -0.83135368D-16 -0.44267389D-06 -0.44267389D-06  0.88534778D-06  0.50241531D-16
 -0.37142509D-16  0.83728649D-17  0.66635029D-17 -0.10117897D-16  0.30942555D-04
  0.63011500D-16 -0.76954179D-16 -0.46413832D-04 -0.83002009D-16  0.10730787D-15
 -0.46413832D-04 -0.14145762D-16  0.25025636D-17  0.18132406D-17 -0.94900705D-05
 -0.40369852D-17  0.30452521D-16  0.14235106D-04 -0.34707056D-17 -0.35892243D-16
  0.14235106D-04 -0.18300204D-16  0.74404604D-05  0.13728253D-04  0.22280545D-04
 -0.93728012D-04 -0.15489545D-05 -0.67205927D-04  0.74155548D-05 -0.39312005D-15
 -0.16430895D-15 -0.61592487D-04  0.23888877D-15  0.41939603D-16  0.13648744D-03
 -0.91102834D-16 -0.17985866D-16 -0.75289184D-04  0.17113551D-16  0.61350873D-17
  0.64579515D-04  0.97535650D-04  0.97535650D-04 -0.19507130D-03  0.10919098D-16
  0.40093033D-15  0.46996226D-15 -0.58787552D-04 -0.58787552D-04  0.11757510D-03
  0.61278384D-17  0.36807433D-17 -0.89744540D-16 -0.12957824D-04 -0.12957824D-04
  0.25915648D-04 -0.12705091D-16 -0.82278706D-17 -0.75654182D-18  0.10853212D-16
  0.40107141D-16  0.20497316D-04  0.24138255D-16  0.54160039D-16 -0.30745974D-04
 -0.56697893D-16 -0.17448146D-15 -0.30745974D-04  0.15057104D-16 -0.38260483D-17
 -0.38674947D-17 -0.41695355D-04 -0.11819953D-17 -0.58463531D-17  0.62543032D-04
  0.12660140D-16  0.17448837D-16  0.62543032D-04 -0.13136425D-17
END DATA
 TOTAL ENERGY =       -0.499949000039 THE VIRIAL(-V/T)=   2.00027525
