 TITLE
GAUSSIAN              1 MOL ORBITALS    114 PRIMITIVES        2 NUCLEI
  H    1    (CENTRE  1)   0.00000000  0.00000000  0.00000000  CHARGE =  1.0
  H    2    (CENTRE  2)   0.00000000  0.00000000  8.88171279  CHARGE =  0.0
CENTRE ASSIGNMENTS    1  1  1  1  1  1  1  1  1  1  1  1  1  1  1  1  1  1  1  1
CENTRE ASSIGNMENTS    1  1  1  1  1  1  1  1  1  1  1  1  1  1  1  1  1  1  1  1
CENTRE ASSIGNMENTS    1  1  1  1  1  1  1  1  1  1  1  1  1  1  1  1  1  2  2  2
CENTRE ASSIGNMENTS    2  2  2  2  2  2  2  2  2  2  2  2  2  2  2  2  2  2  2  2
CENTRE ASSIGNMENTS    2  2  2  2  2  2  2  2  2  2  2  2  2  2  2  2  2  2  2  2
CENTRE ASSIGNMENTS    2  2  2  2  2  2  2  2  2  2  2  2  2  2
TYPE ASSIGNMENTS      1  1  1  1  1  1  1  2  3  4  2  3  4  2  3  4  2  3  4  5
TYPE ASSIGNMENTS      6  7  8  9 10  5  6  7  8  9 10  5  6  7  8  9 10 11 12 13
TYPE ASSIGNMENTS     17 14 15 18 19 16 20 11 12 13 17 14 15 18 19 16 20  1  1  1
TYPE ASSIGNMENTS      1  1  1  1  2  3  4  2  3  4  2  3  4  2  3  4  5  6  7  8
TYPE ASSIGNMENTS      9 10  5  6  7  8  9 10  5  6  7  8  9 10 11 12 13 17 14 15
TYPE ASSIGNMENTS     18 19 16 20 11 12 13 17 14 15 18 19 16 20
EXPONENTS  0.8264000D+02 0.1241000D+02 0.2824000D+01 0.7977000D+00 0.2581000D+00
EXPONENTS  0.8989000D-01 0.2363000D-01 0.2292000D+01 0.2292000D+01 0.2292000D+01
EXPONENTS  0.8380000D+00 0.8380000D+00 0.8380000D+00 0.2920000D+00 0.2920000D+00
EXPONENTS  0.2920000D+00 0.8480000D-01 0.8480000D-01 0.8480000D-01 0.2062000D+01
EXPONENTS  0.2062000D+01 0.2062000D+01 0.2062000D+01 0.2062000D+01 0.2062000D+01
EXPONENTS  0.6620000D+00 0.6620000D+00 0.6620000D+00 0.6620000D+00 0.6620000D+00
EXPONENTS  0.6620000D+00 0.1900000D+00 0.1900000D+00 0.1900000D+00 0.1900000D+00
EXPONENTS  0.1900000D+00 0.1900000D+00 0.1397000D+01 0.1397000D+01 0.1397000D+01
EXPONENTS  0.1397000D+01 0.1397000D+01 0.1397000D+01 0.1397000D+01 0.1397000D+01
EXPONENTS  0.1397000D+01 0.1397000D+01 0.3600000D+00 0.3600000D+00 0.3600000D+00
EXPONENTS  0.3600000D+00 0.3600000D+00 0.3600000D+00 0.3600000D+00 0.3600000D+00
EXPONENTS  0.3600000D+00 0.3600000D+00 0.8264000D+02 0.1241000D+02 0.2824000D+01
EXPONENTS  0.7977000D+00 0.2581000D+00 0.8989000D-01 0.2363000D-01 0.2292000D+01
EXPONENTS  0.2292000D+01 0.2292000D+01 0.8380000D+00 0.8380000D+00 0.8380000D+00
EXPONENTS  0.2920000D+00 0.2920000D+00 0.2920000D+00 0.8480000D-01 0.8480000D-01
EXPONENTS  0.8480000D-01 0.2062000D+01 0.2062000D+01 0.2062000D+01 0.2062000D+01
EXPONENTS  0.2062000D+01 0.2062000D+01 0.6620000D+00 0.6620000D+00 0.6620000D+00
EXPONENTS  0.6620000D+00 0.6620000D+00 0.6620000D+00 0.1900000D+00 0.1900000D+00
EXPONENTS  0.1900000D+00 0.1900000D+00 0.1900000D+00 0.1900000D+00 0.1397000D+01
EXPONENTS  0.1397000D+01 0.1397000D+01 0.1397000D+01 0.1397000D+01 0.1397000D+01
EXPONENTS  0.1397000D+01 0.1397000D+01 0.1397000D+01 0.1397000D+01 0.3600000D+00
EXPONENTS  0.3600000D+00 0.3600000D+00 0.3600000D+00 0.3600000D+00 0.3600000D+00
EXPONENTS  0.3600000D+00 0.3600000D+00 0.3600000D+00 0.3600000D+00
MO    1     MO 0.0        OCC NO =    1.0000000  ORB. ENERGY =   -0.499948
  0.39212642D-01  0.72350504D-01  0.11742271D+00  0.15418852D+00  0.12889000D+00
  0.34165205D-01  0.17014959D-03  0.23743420D-15 -0.16941042D-16  0.45791070D-05
 -0.17855328D-15 -0.23237788D-16 -0.56726260D-05  0.86878306D-16  0.49690284D-16
  0.43657398D-05 -0.21080467D-16 -0.19323569D-16 -0.22357910D-05  0.50701282D-06
  0.50701282D-06 -0.10140256D-05 -0.14043367D-15 -0.42627442D-15  0.51729624D-16
 -0.34291997D-06 -0.34291997D-06  0.68583993D-06  0.79746099D-16  0.19740941D-15
 -0.19528146D-16  0.14419939D-06  0.14419939D-06 -0.28839878D-06 -0.10816557D-16
 -0.29528901D-16  0.10289245D-16  0.17761156D-17  0.64687526D-16  0.19347940D-06
 -0.47230869D-16  0.42831328D-16 -0.29021909D-06  0.41902523D-16 -0.23689390D-15
 -0.29021909D-06  0.32858560D-16 -0.25745710D-17 -0.67864614D-18 -0.61256261D-07
 -0.18576925D-17 -0.25346442D-17  0.91884392D-07  0.95814055D-17  0.45705827D-17
  0.91884392D-07 -0.18624605D-16  0.34540672D-05  0.63730341D-05  0.10343244D-04
 -0.35949793D-04  0.32175847D-04  0.84920528D-05  0.74148859D-05 -0.83199697D-16
 -0.13073707D-15 -0.66257717D-04  0.14044527D-15  0.13993577D-16  0.83670546D-04
 -0.12502733D-15  0.37069898D-16 -0.61299840D-04  0.25399221D-16 -0.61649070D-17
 -0.11840881D-05  0.39633813D-04  0.39633813D-04 -0.79267625D-04 -0.21987458D-15
  0.17581108D-14  0.17489480D-14 -0.24246332D-04 -0.24246332D-04  0.48492663D-04
  0.23388950D-16 -0.14381002D-15 -0.12388178D-15  0.53481684D-05  0.53481684D-05
 -0.10696337D-04 -0.10482490D-18  0.74748810D-17  0.20950492D-17 -0.17205237D-16
 -0.12241327D-16 -0.31634319D-04 -0.99666746D-17  0.77712024D-17  0.47451479D-04
  0.61582385D-16  0.28952779D-16  0.47451479D-04 -0.78517611D-16 -0.14075750D-17
  0.26246230D-17  0.86195555D-05 -0.13314867D-17  0.18810356D-17 -0.12929333D-04
  0.55542117D-17 -0.97549045D-17 -0.12929333D-04  0.15245433D-17
END DATA
 TOTAL ENERGY =       -0.499948405022 THE VIRIAL(-V/T)=   2.00027921
