 TITLE
GAUSSIAN              1 MOL ORBITALS    114 PRIMITIVES        2 NUCLEI
  H    1    (CENTRE  1)   0.00000000  0.00000000  0.00000000  CHARGE =  1.0
  H    2    (CENTRE  2)   0.00000000  0.00000000  3.02356180  CHARGE =  0.0
CENTRE ASSIGNMENTS    1  1  1  1  1  1  1  1  1  1  1  1  1  1  1  1  1  1  1  1
CENTRE ASSIGNMENTS    1  1  1  1  1  1  1  1  1  1  1  1  1  1  1  1  1  1  1  1
CENTRE ASSIGNMENTS    1  1  1  1  1  1  1  1  1  1  1  1  1  1  1  1  1  2  2  2
CENTRE ASSIGNMENTS    2  2  2  2  2  2  2  2  2  2  2  2  2  2  2  2  2  2  2  2
CENTRE ASSIGNMENTS    2  2  2  2  2  2  2  2  2  2  2  2  2  2  2  2  2  2  2  2
CENTRE ASSIGNMENTS    2  2  2  2  2  2  2  2  2  2  2  2  2  2
TYPE ASSIGNMENTS      1  1  1  1  1  1  1  2  3  4  2  3  4  2  3  4  2  3  4  5
TYPE ASSIGNMENTS      6  7  8  9 10  5  6  7  8  9 10  5  6  7  8  9 10 11 12 13
TYPE ASSIGNMENTS     17 14 15 18 19 16 20 11 12 13 17 14 15 18 19 16 20  1  1  1
TYPE ASSIGNMENTS      1  1  1  1  2  3  4  2  3  4  2  3  4  2  3  4  5  6  7  8
TYPE ASSIGNMENTS      9 10  5  6  7  8  9 10  5  6  7  8  9 10 11 12 13 17 14 15
TYPE ASSIGNMENTS     18 19 16 20 11 12 13 17 14 15 18 19 16 20
EXPONENTS  0.8264000D+02 0.1241000D+02 0.2824000D+01 0.7977000D+00 0.2581000D+00
EXPONENTS  0.8989000D-01 0.2363000D-01 0.2292000D+01 0.2292000D+01 0.2292000D+01
EXPONENTS  0.8380000D+00 0.8380000D+00 0.8380000D+00 0.2920000D+00 0.2920000D+00
EXPONENTS  0.2920000D+00 0.8480000D-01 0.8480000D-01 0.8480000D-01 0.2062000D+01
EXPONENTS  0.2062000D+01 0.2062000D+01 0.2062000D+01 0.2062000D+01 0.2062000D+01
EXPONENTS  0.6620000D+00 0.6620000D+00 0.6620000D+00 0.6620000D+00 0.6620000D+00
EXPONENTS  0.6620000D+00 0.1900000D+00 0.1900000D+00 0.1900000D+00 0.1900000D+00
EXPONENTS  0.1900000D+00 0.1900000D+00 0.1397000D+01 0.1397000D+01 0.1397000D+01
EXPONENTS  0.1397000D+01 0.1397000D+01 0.1397000D+01 0.1397000D+01 0.1397000D+01
EXPONENTS  0.1397000D+01 0.1397000D+01 0.3600000D+00 0.3600000D+00 0.3600000D+00
EXPONENTS  0.3600000D+00 0.3600000D+00 0.3600000D+00 0.3600000D+00 0.3600000D+00
EXPONENTS  0.3600000D+00 0.3600000D+00 0.8264000D+02 0.1241000D+02 0.2824000D+01
EXPONENTS  0.7977000D+00 0.2581000D+00 0.8989000D-01 0.2363000D-01 0.2292000D+01
EXPONENTS  0.2292000D+01 0.2292000D+01 0.8380000D+00 0.8380000D+00 0.8380000D+00
EXPONENTS  0.2920000D+00 0.2920000D+00 0.2920000D+00 0.8480000D-01 0.8480000D-01
EXPONENTS  0.8480000D-01 0.2062000D+01 0.2062000D+01 0.2062000D+01 0.2062000D+01
EXPONENTS  0.2062000D+01 0.2062000D+01 0.6620000D+00 0.6620000D+00 0.6620000D+00
EXPONENTS  0.6620000D+00 0.6620000D+00 0.6620000D+00 0.1900000D+00 0.1900000D+00
EXPONENTS  0.1900000D+00 0.1900000D+00 0.1900000D+00 0.1900000D+00 0.1397000D+01
EXPONENTS  0.1397000D+01 0.1397000D+01 0.1397000D+01 0.1397000D+01 0.1397000D+01
EXPONENTS  0.1397000D+01 0.1397000D+01 0.1397000D+01 0.1397000D+01 0.3600000D+00
EXPONENTS  0.3600000D+00 0.3600000D+00 0.3600000D+00 0.3600000D+00 0.3600000D+00
EXPONENTS  0.3600000D+00 0.3600000D+00 0.3600000D+00 0.3600000D+00
MO    1     MO 0.0        OCC NO =    1.0000000  ORB. ENERGY =   -0.499950
  0.39198063D-01  0.72323604D-01  0.11737905D+00  0.15431501D+00  0.12892781D+00
  0.36068802D-01  0.25011596D-03  0.30645977D-15 -0.49678412D-15 -0.67026899D-05
 -0.10032149D-15  0.48016105D-15  0.17585291D-04  0.16454733D-15 -0.19984429D-15
  0.31627653D-03  0.54928820D-16  0.43965166D-16  0.51324549D-03 -0.67812863D-04
 -0.67812863D-04  0.13562573D-03 -0.39421121D-15 -0.93037786D-16  0.57710724D-15
  0.16974510D-04  0.16974510D-04 -0.33949019D-04  0.10746965D-15 -0.80885740D-16
 -0.27305914D-15 -0.34519288D-04 -0.34519288D-04  0.69038577D-04 -0.79635726D-17
  0.12214116D-15  0.66032297D-17 -0.87953161D-16 -0.51257159D-16  0.32979949D-04
  0.14873578D-15  0.20469974D-15 -0.49469923D-04  0.11512370D-15 -0.50928261D-16
 -0.49469923D-04 -0.12721939D-15 -0.19174380D-18  0.14194918D-16 -0.15225153D-04
 -0.17364549D-16  0.34171478D-17  0.22837729D-04  0.17939780D-16 -0.46001902D-16
  0.22837729D-04 -0.28537155D-18  0.14830860D-05  0.27364140D-05  0.44411184D-05
 -0.20879090D-03  0.64811887D-03 -0.21886282D-02 -0.39466336D-04 -0.31669915D-15
 -0.26221553D-15  0.24430256D-03  0.26758066D-16 -0.10659491D-16  0.22557613D-04
  0.94061504D-17  0.99538843D-16  0.20797343D-03 -0.58027813D-16 -0.57151776D-16
  0.56770502D-03 -0.12406879D-03 -0.12406879D-03  0.24813758D-03  0.12999490D-15
  0.29869188D-15 -0.58342195D-16 -0.13734556D-04 -0.13734556D-04  0.27469112D-04
 -0.10421601D-16 -0.10770624D-15 -0.59993802D-16  0.85405160D-04  0.85405160D-04
 -0.17081032D-03  0.90500253D-17  0.10458777D-15 -0.28626070D-16 -0.95252106D-16
  0.51824962D-17 -0.61782796D-03  0.55316697D-16 -0.23089126D-16  0.92674194D-03
  0.23043962D-15  0.75416370D-17  0.92674194D-03 -0.80349696D-16  0.21220115D-16
 -0.13701292D-16  0.54085935D-04  0.20698701D-17 -0.21181115D-17 -0.81128903D-04
 -0.65730216D-16  0.43221986D-16 -0.81128903D-04  0.40605531D-16
END DATA
 TOTAL ENERGY =       -0.499949985250 THE VIRIAL(-V/T)=   2.00026983
