 TITLE
GAUSSIAN              1 MOL ORBITALS    114 PRIMITIVES        2 NUCLEI
  H    1    (CENTRE  1)   0.00000000  0.00000000  0.00000000  CHARGE =  1.0
  H    2    (CENTRE  2)   0.00000000  0.00000000 12.28321981  CHARGE =  0.0
CENTRE ASSIGNMENTS    1  1  1  1  1  1  1  1  1  1  1  1  1  1  1  1  1  1  1  1
CENTRE ASSIGNMENTS    1  1  1  1  1  1  1  1  1  1  1  1  1  1  1  1  1  1  1  1
CENTRE ASSIGNMENTS    1  1  1  1  1  1  1  1  1  1  1  1  1  1  1  1  1  2  2  2
CENTRE ASSIGNMENTS    2  2  2  2  2  2  2  2  2  2  2  2  2  2  2  2  2  2  2  2
CENTRE ASSIGNMENTS    2  2  2  2  2  2  2  2  2  2  2  2  2  2  2  2  2  2  2  2
CENTRE ASSIGNMENTS    2  2  2  2  2  2  2  2  2  2  2  2  2  2
TYPE ASSIGNMENTS      1  1  1  1  1  1  1  2  3  4  2  3  4  2  3  4  2  3  4  5
TYPE ASSIGNMENTS      6  7  8  9 10  5  6  7  8  9 10  5  6  7  8  9 10 11 12 13
TYPE ASSIGNMENTS     17 14 15 18 19 16 20 11 12 13 17 14 15 18 19 16 20  1  1  1
TYPE ASSIGNMENTS      1  1  1  1  2  3  4  2  3  4  2  3  4  2  3  4  5  6  7  8
TYPE ASSIGNMENTS      9 10  5  6  7  8  9 10  5  6  7  8  9 10 11 12 13 17 14 15
TYPE ASSIGNMENTS     18 19 16 20 11 12 13 17 14 15 18 19 16 20
EXPONENTS  0.8264000D+02 0.1241000D+02 0.2824000D+01 0.7977000D+00 0.2581000D+00
EXPONENTS  0.8989000D-01 0.2363000D-01 0.2292000D+01 0.2292000D+01 0.2292000D+01
EXPONENTS  0.8380000D+00 0.8380000D+00 0.8380000D+00 0.2920000D+00 0.2920000D+00
EXPONENTS  0.2920000D+00 0.8480000D-01 0.8480000D-01 0.8480000D-01 0.2062000D+01
EXPONENTS  0.2062000D+01 0.2062000D+01 0.2062000D+01 0.2062000D+01 0.2062000D+01
EXPONENTS  0.6620000D+00 0.6620000D+00 0.6620000D+00 0.6620000D+00 0.6620000D+00
EXPONENTS  0.6620000D+00 0.1900000D+00 0.1900000D+00 0.1900000D+00 0.1900000D+00
EXPONENTS  0.1900000D+00 0.1900000D+00 0.1397000D+01 0.1397000D+01 0.1397000D+01
EXPONENTS  0.1397000D+01 0.1397000D+01 0.1397000D+01 0.1397000D+01 0.1397000D+01
EXPONENTS  0.1397000D+01 0.1397000D+01 0.3600000D+00 0.3600000D+00 0.3600000D+00
EXPONENTS  0.3600000D+00 0.3600000D+00 0.3600000D+00 0.3600000D+00 0.3600000D+00
EXPONENTS  0.3600000D+00 0.3600000D+00 0.8264000D+02 0.1241000D+02 0.2824000D+01
EXPONENTS  0.7977000D+00 0.2581000D+00 0.8989000D-01 0.2363000D-01 0.2292000D+01
EXPONENTS  0.2292000D+01 0.2292000D+01 0.8380000D+00 0.8380000D+00 0.8380000D+00
EXPONENTS  0.2920000D+00 0.2920000D+00 0.2920000D+00 0.8480000D-01 0.8480000D-01
EXPONENTS  0.8480000D-01 0.2062000D+01 0.2062000D+01 0.2062000D+01 0.2062000D+01
EXPONENTS  0.2062000D+01 0.2062000D+01 0.6620000D+00 0.6620000D+00 0.6620000D+00
EXPONENTS  0.6620000D+00 0.6620000D+00 0.6620000D+00 0.1900000D+00 0.1900000D+00
EXPONENTS  0.1900000D+00 0.1900000D+00 0.1900000D+00 0.1900000D+00 0.1397000D+01
EXPONENTS  0.1397000D+01 0.1397000D+01 0.1397000D+01 0.1397000D+01 0.1397000D+01
EXPONENTS  0.1397000D+01 0.1397000D+01 0.1397000D+01 0.1397000D+01 0.3600000D+00
EXPONENTS  0.3600000D+00 0.3600000D+00 0.3600000D+00 0.3600000D+00 0.3600000D+00
EXPONENTS  0.3600000D+00 0.3600000D+00 0.3600000D+00 0.3600000D+00
MO    1     MO 0.0        OCC NO =    1.0000000  ORB. ENERGY =   -0.499948
  0.39213035D-01  0.72351230D-01  0.11742389D+00  0.15418405D+00  0.12889733D+00
  0.34158362D-01  0.17366699D-03  0.28075130D-15  0.16975969D-15  0.28476258D-05
 -0.16467801D-15 -0.10937662D-15 -0.34827535D-05  0.97084699D-16  0.29129895D-16
  0.25546172D-05 -0.24309328D-16 -0.51878421D-17 -0.11312869D-05  0.25574499D-06
  0.25574499D-06 -0.51148997D-06  0.31392458D-15 -0.18470681D-15  0.56010231D-16
 -0.16841663D-06 -0.16841663D-06  0.33683326D-06 -0.43554006D-16 -0.35154411D-17
  0.44864959D-16  0.63868050D-07  0.63868050D-07 -0.12773610D-06  0.38459126D-17
  0.61317234D-17 -0.20710594D-16  0.74544213D-17  0.32111531D-16  0.31076492D-07
 -0.52595474D-16 -0.18640912D-16 -0.46614737D-07  0.30232210D-16 -0.77693681D-16
 -0.46614738D-07 -0.28099160D-16 -0.42704804D-18 -0.33799165D-17 -0.88832509D-08
  0.18261133D-17  0.27206549D-17  0.13324876D-07 -0.54496917D-18  0.74190947D-17
  0.13324876D-07 -0.36874563D-17  0.14823998D-06  0.27351478D-06  0.44390633D-06
 -0.28173327D-05  0.10608377D-04 -0.21040507D-04  0.10385545D-04 -0.41601095D-16
 -0.12679542D-15  0.43162166D-04 -0.41422443D-16  0.33087710D-16 -0.52035620D-04
  0.37437198D-16  0.39750606D-17  0.36550881D-04 -0.14029837D-16 -0.44011517D-17
 -0.12219348D-04 -0.95274069D-05 -0.95274069D-05  0.19054814D-04  0.29211083D-15
 -0.18181754D-14 -0.40920499D-15  0.59611766D-05  0.59611766D-05 -0.11922353D-04
 -0.26081319D-16  0.17370940D-15  0.12052225D-16 -0.19657553D-05 -0.19657553D-05
  0.39315106D-05  0.63591112D-17 -0.73908019D-17 -0.42771498D-17 -0.10161943D-16
  0.89526507D-17  0.30440097D-05  0.25588669D-16  0.14454550D-16 -0.45660145D-05
  0.48971588D-17 -0.41312503D-16 -0.45660145D-05 -0.53419470D-17  0.43501673D-19
 -0.22919883D-18 -0.87285523D-06 -0.21795366D-18  0.16690701D-18  0.13092828D-05
  0.87448639D-19  0.52068948D-18  0.13092828D-05  0.54107310D-19
END DATA
 TOTAL ENERGY =       -0.499948346610 THE VIRIAL(-V/T)=   2.00027958
