 TITLE
GAUSSIAN              1 MOL ORBITALS    114 PRIMITIVES        2 NUCLEI
  H    1    (CENTRE  1)   0.00000000  0.00000000  0.00000000  CHARGE =  1.0
  H    2    (CENTRE  2)   0.00000000  0.00000000 10.58246630  CHARGE =  0.0
CENTRE ASSIGNMENTS    1  1  1  1  1  1  1  1  1  1  1  1  1  1  1  1  1  1  1  1
CENTRE ASSIGNMENTS    1  1  1  1  1  1  1  1  1  1  1  1  1  1  1  1  1  1  1  1
CENTRE ASSIGNMENTS    1  1  1  1  1  1  1  1  1  1  1  1  1  1  1  1  1  2  2  2
CENTRE ASSIGNMENTS    2  2  2  2  2  2  2  2  2  2  2  2  2  2  2  2  2  2  2  2
CENTRE ASSIGNMENTS    2  2  2  2  2  2  2  2  2  2  2  2  2  2  2  2  2  2  2  2
CENTRE ASSIGNMENTS    2  2  2  2  2  2  2  2  2  2  2  2  2  2
TYPE ASSIGNMENTS      1  1  1  1  1  1  1  2  3  4  2  3  4  2  3  4  2  3  4  5
TYPE ASSIGNMENTS      6  7  8  9 10  5  6  7  8  9 10  5  6  7  8  9 10 11 12 13
TYPE ASSIGNMENTS     17 14 15 18 19 16 20 11 12 13 17 14 15 18 19 16 20  1  1  1
TYPE ASSIGNMENTS      1  1  1  1  2  3  4  2  3  4  2  3  4  2  3  4  5  6  7  8
TYPE ASSIGNMENTS      9 10  5  6  7  8  9 10  5  6  7  8  9 10 11 12 13 17 14 15
TYPE ASSIGNMENTS     18 19 16 20 11 12 13 17 14 15 18 19 16 20
EXPONENTS  0.8264000D+02 0.1241000D+02 0.2824000D+01 0.7977000D+00 0.2581000D+00
EXPONENTS  0.8989000D-01 0.2363000D-01 0.2292000D+01 0.2292000D+01 0.2292000D+01
EXPONENTS  0.8380000D+00 0.8380000D+00 0.8380000D+00 0.2920000D+00 0.2920000D+00
EXPONENTS  0.2920000D+00 0.8480000D-01 0.8480000D-01 0.8480000D-01 0.2062000D+01
EXPONENTS  0.2062000D+01 0.2062000D+01 0.2062000D+01 0.2062000D+01 0.2062000D+01
EXPONENTS  0.6620000D+00 0.6620000D+00 0.6620000D+00 0.6620000D+00 0.6620000D+00
EXPONENTS  0.6620000D+00 0.1900000D+00 0.1900000D+00 0.1900000D+00 0.1900000D+00
EXPONENTS  0.1900000D+00 0.1900000D+00 0.1397000D+01 0.1397000D+01 0.1397000D+01
EXPONENTS  0.1397000D+01 0.1397000D+01 0.1397000D+01 0.1397000D+01 0.1397000D+01
EXPONENTS  0.1397000D+01 0.1397000D+01 0.3600000D+00 0.3600000D+00 0.3600000D+00
EXPONENTS  0.3600000D+00 0.3600000D+00 0.3600000D+00 0.3600000D+00 0.3600000D+00
EXPONENTS  0.3600000D+00 0.3600000D+00 0.8264000D+02 0.1241000D+02 0.2824000D+01
EXPONENTS  0.7977000D+00 0.2581000D+00 0.8989000D-01 0.2363000D-01 0.2292000D+01
EXPONENTS  0.2292000D+01 0.2292000D+01 0.8380000D+00 0.8380000D+00 0.8380000D+00
EXPONENTS  0.2920000D+00 0.2920000D+00 0.2920000D+00 0.8480000D-01 0.8480000D-01
EXPONENTS  0.8480000D-01 0.2062000D+01 0.2062000D+01 0.2062000D+01 0.2062000D+01
EXPONENTS  0.2062000D+01 0.2062000D+01 0.6620000D+00 0.6620000D+00 0.6620000D+00
EXPONENTS  0.6620000D+00 0.6620000D+00 0.6620000D+00 0.1900000D+00 0.1900000D+00
EXPONENTS  0.1900000D+00 0.1900000D+00 0.1900000D+00 0.1900000D+00 0.1397000D+01
EXPONENTS  0.1397000D+01 0.1397000D+01 0.1397000D+01 0.1397000D+01 0.1397000D+01
EXPONENTS  0.1397000D+01 0.1397000D+01 0.1397000D+01 0.1397000D+01 0.3600000D+00
EXPONENTS  0.3600000D+00 0.3600000D+00 0.3600000D+00 0.3600000D+00 0.3600000D+00
EXPONENTS  0.3600000D+00 0.3600000D+00 0.3600000D+00 0.3600000D+00
MO    1     MO 0.0        OCC NO =    1.0000000  ORB. ENERGY =   -0.499948
  0.39212486D-01  0.72350216D-01  0.11742224D+00  0.15419030D+00  0.12888640D+00
  0.34169086D-01  0.16911383D-03 -0.10273577D-15 -0.65965292D-15  0.83887057D-05
  0.66556970D-16  0.50312690D-15 -0.10212127D-04  0.25014407D-16 -0.15956152D-15
  0.73267283D-05 -0.44810535D-17  0.23436467D-16 -0.30126670D-05  0.49306128D-06
  0.49306128D-06 -0.98612255D-06 -0.28001007D-16 -0.25858273D-15  0.89882533D-16
 -0.32099019D-06 -0.32099019D-06  0.64198038D-06  0.19577336D-16 -0.25504646D-17
  0.20579079D-17  0.10482486D-06  0.10482486D-06 -0.20964971D-06  0.18871087D-17
  0.44282736D-17 -0.37973165D-17  0.27928106D-17  0.17189131D-16  0.11624050D-07
  0.25720845D-16 -0.13285337D-15 -0.17436076D-07 -0.34099277D-16  0.81285975D-16
 -0.17436076D-07  0.58615703D-16  0.29423927D-17 -0.13418311D-17  0.22933373D-08
  0.45544462D-18  0.68234093D-17 -0.34400060D-08 -0.92826228D-17 -0.27979160D-17
 -0.34400060D-08 -0.77912513D-17 -0.19989962D-05 -0.36883101D-05 -0.59860173D-05
  0.23387727D-04 -0.38085344D-04  0.14507668D-04  0.78375628D-05 -0.50302234D-16
 -0.20843510D-15  0.29653066D-04  0.43352871D-16  0.16884481D-15 -0.39302225D-04
 -0.22578428D-16 -0.62422857D-16  0.36944593D-04  0.47988309D-17  0.94847861D-17
 -0.22740869D-04 -0.23995688D-04 -0.23995688D-04  0.47991375D-04  0.45849814D-15
  0.15657212D-14  0.18385772D-14  0.15762813D-04  0.15762813D-04 -0.31525625D-04
 -0.44960003D-16 -0.19760489D-15 -0.15715663D-15 -0.64609449D-05 -0.64609449D-05
  0.12921890D-04  0.32036817D-17  0.20148231D-16  0.28334402D-17  0.17135434D-16
 -0.56231472D-17  0.11166216D-04 -0.98604058D-18  0.23104372D-17 -0.16749324D-04
 -0.50420263D-16  0.14559004D-16 -0.16749324D-04 -0.12388485D-16  0.16129084D-17
 -0.24247216D-17 -0.34864887D-05  0.18960208D-17 -0.30453600D-17  0.52297330D-05
 -0.67347460D-17  0.10319525D-16  0.52297330D-05  0.37918321D-18
END DATA
 TOTAL ENERGY =       -0.499948403408 THE VIRIAL(-V/T)=   2.00027995
