 TITLE
GAUSSIAN              1 MOL ORBITALS    114 PRIMITIVES        2 NUCLEI
  H    1    (CENTRE  1)   0.00000000  0.00000000  0.00000000  CHARGE =  1.0
  H    2    (CENTRE  2)   0.00000000  0.00000000  9.82657585  CHARGE =  0.0
CENTRE ASSIGNMENTS    1  1  1  1  1  1  1  1  1  1  1  1  1  1  1  1  1  1  1  1
CENTRE ASSIGNMENTS    1  1  1  1  1  1  1  1  1  1  1  1  1  1  1  1  1  1  1  1
CENTRE ASSIGNMENTS    1  1  1  1  1  1  1  1  1  1  1  1  1  1  1  1  1  2  2  2
CENTRE ASSIGNMENTS    2  2  2  2  2  2  2  2  2  2  2  2  2  2  2  2  2  2  2  2
CENTRE ASSIGNMENTS    2  2  2  2  2  2  2  2  2  2  2  2  2  2  2  2  2  2  2  2
CENTRE ASSIGNMENTS    2  2  2  2  2  2  2  2  2  2  2  2  2  2
TYPE ASSIGNMENTS      1  1  1  1  1  1  1  2  3  4  2  3  4  2  3  4  2  3  4  5
TYPE ASSIGNMENTS      6  7  8  9 10  5  6  7  8  9 10  5  6  7  8  9 10 11 12 13
TYPE ASSIGNMENTS     17 14 15 18 19 16 20 11 12 13 17 14 15 18 19 16 20  1  1  1
TYPE ASSIGNMENTS      1  1  1  1  2  3  4  2  3  4  2  3  4  2  3  4  5  6  7  8
TYPE ASSIGNMENTS      9 10  5  6  7  8  9 10  5  6  7  8  9 10 11 12 13 17 14 15
TYPE ASSIGNMENTS     18 19 16 20 11 12 13 17 14 15 18 19 16 20
EXPONENTS  0.8264000D+02 0.1241000D+02 0.2824000D+01 0.7977000D+00 0.2581000D+00
EXPONENTS  0.8989000D-01 0.2363000D-01 0.2292000D+01 0.2292000D+01 0.2292000D+01
EXPONENTS  0.8380000D+00 0.8380000D+00 0.8380000D+00 0.2920000D+00 0.2920000D+00
EXPONENTS  0.2920000D+00 0.8480000D-01 0.8480000D-01 0.8480000D-01 0.2062000D+01
EXPONENTS  0.2062000D+01 0.2062000D+01 0.2062000D+01 0.2062000D+01 0.2062000D+01
EXPONENTS  0.6620000D+00 0.6620000D+00 0.6620000D+00 0.6620000D+00 0.6620000D+00
EXPONENTS  0.6620000D+00 0.1900000D+00 0.1900000D+00 0.1900000D+00 0.1900000D+00
EXPONENTS  0.1900000D+00 0.1900000D+00 0.1397000D+01 0.1397000D+01 0.1397000D+01
EXPONENTS  0.1397000D+01 0.1397000D+01 0.1397000D+01 0.1397000D+01 0.1397000D+01
EXPONENTS  0.1397000D+01 0.1397000D+01 0.3600000D+00 0.3600000D+00 0.3600000D+00
EXPONENTS  0.3600000D+00 0.3600000D+00 0.3600000D+00 0.3600000D+00 0.3600000D+00
EXPONENTS  0.3600000D+00 0.3600000D+00 0.8264000D+02 0.1241000D+02 0.2824000D+01
EXPONENTS  0.7977000D+00 0.2581000D+00 0.8989000D-01 0.2363000D-01 0.2292000D+01
EXPONENTS  0.2292000D+01 0.2292000D+01 0.8380000D+00 0.8380000D+00 0.8380000D+00
EXPONENTS  0.2920000D+00 0.2920000D+00 0.2920000D+00 0.8480000D-01 0.8480000D-01
EXPONENTS  0.8480000D-01 0.2062000D+01 0.2062000D+01 0.2062000D+01 0.2062000D+01
EXPONENTS  0.2062000D+01 0.2062000D+01 0.6620000D+00 0.6620000D+00 0.6620000D+00
EXPONENTS  0.6620000D+00 0.6620000D+00 0.6620000D+00 0.1900000D+00 0.1900000D+00
EXPONENTS  0.1900000D+00 0.1900000D+00 0.1900000D+00 0.1900000D+00 0.1397000D+01
EXPONENTS  0.1397000D+01 0.1397000D+01 0.1397000D+01 0.1397000D+01 0.1397000D+01
EXPONENTS  0.1397000D+01 0.1397000D+01 0.1397000D+01 0.1397000D+01 0.3600000D+00
EXPONENTS  0.3600000D+00 0.3600000D+00 0.3600000D+00 0.3600000D+00 0.3600000D+00
EXPONENTS  0.3600000D+00 0.3600000D+00 0.3600000D+00 0.3600000D+00
MO    1     MO 0.0        OCC NO =    1.0000000  ORB. ENERGY =   -0.499948
  0.39212494D-01  0.72350232D-01  0.11742227D+00  0.15419017D+00  0.12888616D+00
  0.34170104D-01  0.16819443D-03 -0.34947459D-15  0.17067514D-15  0.11833799D-04
  0.24352934D-15 -0.11794122D-15 -0.14417367D-04 -0.68808465D-16  0.30682521D-16
  0.10364403D-04 -0.25832990D-17 -0.37013749D-17 -0.42351257D-05  0.91463184D-06
  0.91463184D-06 -0.18292637D-05  0.44570259D-16 -0.68613355D-16  0.33507615D-16
 -0.59248037D-06 -0.59248037D-06  0.11849607D-05  0.35857767D-16 -0.34715324D-16
 -0.47167054D-16  0.19771679D-06  0.19771679D-06 -0.39543357D-06 -0.99095112D-17
  0.20503112D-16  0.70508715D-17 -0.14881480D-16 -0.48533091D-16  0.85887720D-07
 -0.28439514D-17  0.75977537D-16 -0.12883158D-06  0.47488390D-16  0.69621737D-16
 -0.12883158D-06  0.28343499D-16  0.87634868D-18  0.14054660D-17 -0.17427854D-07
 -0.32273937D-17 -0.54210324D-17  0.26141780D-07  0.59834766D-18  0.12046344D-17
  0.26141780D-07 -0.28583461D-17 -0.53363071D-06 -0.98459193D-06 -0.15979633D-05
  0.95677672D-05 -0.29982057D-04  0.23099474D-04  0.67492253D-05 -0.12989205D-15
 -0.23951210D-15 -0.20091048D-04  0.11620572D-15  0.13167435D-15  0.20428880D-04
 -0.42743568D-16 -0.35669054D-16 -0.20533771D-05  0.55388755D-17  0.80762969D-17
 -0.18002819D-04 -0.99510515D-05 -0.99510515D-05  0.19902103D-04  0.15167254D-15
 -0.45498397D-15  0.17942456D-14  0.75311240D-05  0.75311240D-05 -0.15062248D-04
 -0.17012228D-16  0.47145199D-17 -0.16404213D-15 -0.49674392D-05 -0.49674392D-05
  0.99348784D-05  0.14261576D-18  0.57601425D-17  0.67113598D-17 -0.39780819D-17
  0.21138792D-17  0.51384858D-05  0.17689859D-16 -0.77275646D-17 -0.77077287D-05
 -0.57556131D-17  0.13859270D-17 -0.77077287D-05  0.21193394D-16  0.93763479D-18
 -0.57205099D-18 -0.20671234D-05 -0.12088576D-17 -0.14359035D-17  0.31006851D-05
 -0.16040468D-17  0.31520565D-17  0.31006851D-05  0.22491914D-18
END DATA
 TOTAL ENERGY =       -0.499948398330 THE VIRIAL(-V/T)=   2.00028057
