 TITLE
GAUSSIAN              1 MOL ORBITALS    114 PRIMITIVES        2 NUCLEI
  H    1    (CENTRE  1)   0.00000000  0.00000000  0.00000000  CHARGE =  1.0
  H    2    (CENTRE  2)   0.00000000  0.00000000 13.03911026  CHARGE =  0.0
CENTRE ASSIGNMENTS    1  1  1  1  1  1  1  1  1  1  1  1  1  1  1  1  1  1  1  1
CENTRE ASSIGNMENTS    1  1  1  1  1  1  1  1  1  1  1  1  1  1  1  1  1  1  1  1
CENTRE ASSIGNMENTS    1  1  1  1  1  1  1  1  1  1  1  1  1  1  1  1  1  2  2  2
CENTRE ASSIGNMENTS    2  2  2  2  2  2  2  2  2  2  2  2  2  2  2  2  2  2  2  2
CENTRE ASSIGNMENTS    2  2  2  2  2  2  2  2  2  2  2  2  2  2  2  2  2  2  2  2
CENTRE ASSIGNMENTS    2  2  2  2  2  2  2  2  2  2  2  2  2  2
TYPE ASSIGNMENTS      1  1  1  1  1  1  1  2  3  4  2  3  4  2  3  4  2  3  4  5
TYPE ASSIGNMENTS      6  7  8  9 10  5  6  7  8  9 10  5  6  7  8  9 10 11 12 13
TYPE ASSIGNMENTS     17 14 15 18 19 16 20 11 12 13 17 14 15 18 19 16 20  1  1  1
TYPE ASSIGNMENTS      1  1  1  1  2  3  4  2  3  4  2  3  4  2  3  4  5  6  7  8
TYPE ASSIGNMENTS      9 10  5  6  7  8  9 10  5  6  7  8  9 10 11 12 13 17 14 15
TYPE ASSIGNMENTS     18 19 16 20 11 12 13 17 14 15 18 19 16 20
EXPONENTS  0.8264000D+02 0.1241000D+02 0.2824000D+01 0.7977000D+00 0.2581000D+00
EXPONENTS  0.8989000D-01 0.2363000D-01 0.2292000D+01 0.2292000D+01 0.2292000D+01
EXPONENTS  0.8380000D+00 0.8380000D+00 0.8380000D+00 0.2920000D+00 0.2920000D+00
EXPONENTS  0.2920000D+00 0.8480000D-01 0.8480000D-01 0.8480000D-01 0.2062000D+01
EXPONENTS  0.2062000D+01 0.2062000D+01 0.2062000D+01 0.2062000D+01 0.2062000D+01
EXPONENTS  0.6620000D+00 0.6620000D+00 0.6620000D+00 0.6620000D+00 0.6620000D+00
EXPONENTS  0.6620000D+00 0.1900000D+00 0.1900000D+00 0.1900000D+00 0.1900000D+00
EXPONENTS  0.1900000D+00 0.1900000D+00 0.1397000D+01 0.1397000D+01 0.1397000D+01
EXPONENTS  0.1397000D+01 0.1397000D+01 0.1397000D+01 0.1397000D+01 0.1397000D+01
EXPONENTS  0.1397000D+01 0.1397000D+01 0.3600000D+00 0.3600000D+00 0.3600000D+00
EXPONENTS  0.3600000D+00 0.3600000D+00 0.3600000D+00 0.3600000D+00 0.3600000D+00
EXPONENTS  0.3600000D+00 0.3600000D+00 0.8264000D+02 0.1241000D+02 0.2824000D+01
EXPONENTS  0.7977000D+00 0.2581000D+00 0.8989000D-01 0.2363000D-01 0.2292000D+01
EXPONENTS  0.2292000D+01 0.2292000D+01 0.8380000D+00 0.8380000D+00 0.8380000D+00
EXPONENTS  0.2920000D+00 0.2920000D+00 0.2920000D+00 0.8480000D-01 0.8480000D-01
EXPONENTS  0.8480000D-01 0.2062000D+01 0.2062000D+01 0.2062000D+01 0.2062000D+01
EXPONENTS  0.2062000D+01 0.2062000D+01 0.6620000D+00 0.6620000D+00 0.6620000D+00
EXPONENTS  0.6620000D+00 0.6620000D+00 0.6620000D+00 0.1900000D+00 0.1900000D+00
EXPONENTS  0.1900000D+00 0.1900000D+00 0.1900000D+00 0.1900000D+00 0.1397000D+01
EXPONENTS  0.1397000D+01 0.1397000D+01 0.1397000D+01 0.1397000D+01 0.1397000D+01
EXPONENTS  0.1397000D+01 0.1397000D+01 0.1397000D+01 0.1397000D+01 0.3600000D+00
EXPONENTS  0.3600000D+00 0.3600000D+00 0.3600000D+00 0.3600000D+00 0.3600000D+00
EXPONENTS  0.3600000D+00 0.3600000D+00 0.3600000D+00 0.3600000D+00
MO    1     MO 0.0        OCC NO =    1.0000000  ORB. ENERGY =   -0.499948
  0.39213218D-01  0.72351567D-01  0.11742444D+00  0.15418189D+00  0.12890093D+00
  0.34154923D-01  0.17511458D-03 -0.11255118D-16  0.95663434D-16  0.18068774D-05
 -0.69003061D-16 -0.24266037D-16 -0.22117206D-05  0.63055198D-16  0.14898013D-16
  0.16257533D-05 -0.45010408D-17  0.70453562D-17 -0.72021453D-06  0.18231164D-06
  0.18231164D-06 -0.36462327D-06 -0.20825129D-15  0.31462294D-15  0.13803589D-15
 -0.11985059D-06 -0.11985059D-06  0.23970119D-06  0.60874271D-16  0.25128084D-16
 -0.52473713D-16  0.45683500D-07  0.45683500D-07 -0.91367000D-07 -0.50910349D-17
 -0.17096832D-16  0.11689575D-16 -0.17017265D-16  0.27128981D-16  0.26754805D-07
  0.46805778D-16 -0.85662073D-16 -0.40132207D-07  0.42460163D-17  0.42751296D-17
 -0.40132207D-07  0.21848083D-15 -0.23464221D-18 -0.14476084D-17 -0.78949919D-08
 -0.20337491D-17  0.42887096D-17  0.11842488D-07  0.27376757D-17  0.54115691D-19
  0.11842488D-07 -0.29673855D-17  0.11129316D-05  0.20534491D-05  0.33326866D-05
 -0.13223184D-04  0.24843991D-04 -0.27024650D-04  0.97017003D-05 -0.12891013D-15
  0.52716409D-15  0.26382436D-04  0.11681722D-15 -0.28198651D-15 -0.31401008D-04
 -0.46833911D-16  0.87559358D-16  0.21122344D-04  0.91858239D-17 -0.13296089D-16
 -0.61132959D-05 -0.32603400D-05 -0.32603400D-05  0.65206800D-05 -0.38518321D-15
 -0.22671267D-14 -0.67136691D-15  0.19941638D-05  0.19941638D-05 -0.39883276D-05
  0.22833391D-16  0.21284731D-15  0.78955521D-16 -0.57876744D-06 -0.57876744D-06
  0.11575349D-05 -0.74211280D-18 -0.16270460D-16 -0.38110275D-17  0.24878231D-17
  0.93172692D-17  0.88071784D-06 -0.27152348D-16 -0.37753712D-17 -0.13210768D-05
  0.19688878D-16 -0.24176436D-16 -0.13210768D-05 -0.12791255D-16  0.77329105D-18
  0.73452030D-19 -0.24097994D-06  0.14425749D-17  0.88982481D-18  0.36146992D-06
 -0.37624480D-17 -0.11101809D-17  0.36146992D-06 -0.22617643D-17
END DATA
 TOTAL ENERGY =       -0.499948334081 THE VIRIAL(-V/T)=   2.00028004
