 TITLE
GAUSSIAN              1 MOL ORBITALS    114 PRIMITIVES        2 NUCLEI
  H    1    (CENTRE  1)   0.00000000  0.00000000  0.00000000  CHARGE =  1.0
  H    2    (CENTRE  2)   0.00000000  0.00000000  5.10226054  CHARGE =  0.0
CENTRE ASSIGNMENTS    1  1  1  1  1  1  1  1  1  1  1  1  1  1  1  1  1  1  1  1
CENTRE ASSIGNMENTS    1  1  1  1  1  1  1  1  1  1  1  1  1  1  1  1  1  1  1  1
CENTRE ASSIGNMENTS    1  1  1  1  1  1  1  1  1  1  1  1  1  1  1  1  1  2  2  2
CENTRE ASSIGNMENTS    2  2  2  2  2  2  2  2  2  2  2  2  2  2  2  2  2  2  2  2
CENTRE ASSIGNMENTS    2  2  2  2  2  2  2  2  2  2  2  2  2  2  2  2  2  2  2  2
CENTRE ASSIGNMENTS    2  2  2  2  2  2  2  2  2  2  2  2  2  2
TYPE ASSIGNMENTS      1  1  1  1  1  1  1  2  3  4  2  3  4  2  3  4  2  3  4  5
TYPE ASSIGNMENTS      6  7  8  9 10  5  6  7  8  9 10  5  6  7  8  9 10 11 12 13
TYPE ASSIGNMENTS     17 14 15 18 19 16 20 11 12 13 17 14 15 18 19 16 20  1  1  1
TYPE ASSIGNMENTS      1  1  1  1  2  3  4  2  3  4  2  3  4  2  3  4  5  6  7  8
TYPE ASSIGNMENTS      9 10  5  6  7  8  9 10  5  6  7  8  9 10 11 12 13 17 14 15
TYPE ASSIGNMENTS     18 19 16 20 11 12 13 17 14 15 18 19 16 20
EXPONENTS  0.8264000D+02 0.1241000D+02 0.2824000D+01 0.7977000D+00 0.2581000D+00
EXPONENTS  0.8989000D-01 0.2363000D-01 0.2292000D+01 0.2292000D+01 0.2292000D+01
EXPONENTS  0.8380000D+00 0.8380000D+00 0.8380000D+00 0.2920000D+00 0.2920000D+00
EXPONENTS  0.2920000D+00 0.8480000D-01 0.8480000D-01 0.8480000D-01 0.2062000D+01
EXPONENTS  0.2062000D+01 0.2062000D+01 0.2062000D+01 0.2062000D+01 0.2062000D+01
EXPONENTS  0.6620000D+00 0.6620000D+00 0.6620000D+00 0.6620000D+00 0.6620000D+00
EXPONENTS  0.6620000D+00 0.1900000D+00 0.1900000D+00 0.1900000D+00 0.1900000D+00
EXPONENTS  0.1900000D+00 0.1900000D+00 0.1397000D+01 0.1397000D+01 0.1397000D+01
EXPONENTS  0.1397000D+01 0.1397000D+01 0.1397000D+01 0.1397000D+01 0.1397000D+01
EXPONENTS  0.1397000D+01 0.1397000D+01 0.3600000D+00 0.3600000D+00 0.3600000D+00
EXPONENTS  0.3600000D+00 0.3600000D+00 0.3600000D+00 0.3600000D+00 0.3600000D+00
EXPONENTS  0.3600000D+00 0.3600000D+00 0.8264000D+02 0.1241000D+02 0.2824000D+01
EXPONENTS  0.7977000D+00 0.2581000D+00 0.8989000D-01 0.2363000D-01 0.2292000D+01
EXPONENTS  0.2292000D+01 0.2292000D+01 0.8380000D+00 0.8380000D+00 0.8380000D+00
EXPONENTS  0.2920000D+00 0.2920000D+00 0.2920000D+00 0.8480000D-01 0.8480000D-01
EXPONENTS  0.8480000D-01 0.2062000D+01 0.2062000D+01 0.2062000D+01 0.2062000D+01
EXPONENTS  0.2062000D+01 0.2062000D+01 0.6620000D+00 0.6620000D+00 0.6620000D+00
EXPONENTS  0.6620000D+00 0.6620000D+00 0.6620000D+00 0.1900000D+00 0.1900000D+00
EXPONENTS  0.1900000D+00 0.1900000D+00 0.1900000D+00 0.1900000D+00 0.1397000D+01
EXPONENTS  0.1397000D+01 0.1397000D+01 0.1397000D+01 0.1397000D+01 0.1397000D+01
EXPONENTS  0.1397000D+01 0.1397000D+01 0.1397000D+01 0.1397000D+01 0.3600000D+00
EXPONENTS  0.3600000D+00 0.3600000D+00 0.3600000D+00 0.3600000D+00 0.3600000D+00
EXPONENTS  0.3600000D+00 0.3600000D+00 0.3600000D+00 0.3600000D+00
MO    1     MO 0.0        OCC NO =    1.0000000  ORB. ENERGY =   -0.499949
  0.39207563D-01  0.72341134D-01  0.11740750D+00  0.15424174D+00  0.12881463D+00
  0.34234546D-01  0.18412121D-03  0.27315148D-16  0.43327155D-15 -0.11590787D-03
 -0.62816187D-16 -0.36126664D-15  0.13707306D-03 -0.97974078D-17  0.87236404D-16
 -0.88329877D-04  0.11261800D-16  0.83195167D-18  0.53681476D-04 -0.54213581D-05
 -0.54213581D-05  0.10842716D-04 -0.50036999D-15 -0.26045889D-15 -0.71632124D-15
  0.24559834D-05  0.24559834D-05 -0.49119668D-05  0.12074265D-15  0.64381785D-16
  0.86262039D-16 -0.16483137D-05 -0.16483137D-05  0.32966274D-05 -0.38637036D-16
 -0.12239893D-16 -0.23938825D-17 -0.32363615D-16 -0.70528401D-17  0.32054927D-04
  0.61045335D-16 -0.11215165D-15 -0.48082390D-04  0.36045510D-16  0.13331017D-15
 -0.48082390D-04 -0.54182358D-16  0.37416505D-17 -0.27240108D-18 -0.10068407D-04
 -0.26605111D-16  0.11005810D-16  0.15102610D-04  0.15380159D-16 -0.10188607D-16
  0.15102610D-04  0.50089071D-17  0.63772940D-05  0.11766625D-04  0.19096881D-04
 -0.10403510D-03  0.21360393D-04 -0.96643899D-04  0.70137386D-05 -0.15203967D-15
 -0.62392999D-16 -0.10829607D-04  0.41678281D-16  0.10623713D-16  0.86176184D-04
  0.47542526D-17  0.13941259D-17 -0.10468336D-03 -0.90285175D-17  0.20414846D-17
  0.76414776D-04  0.92792588D-04  0.92792588D-04 -0.18558518D-03 -0.85601566D-15
  0.59465578D-15  0.18224371D-16 -0.69953763D-04 -0.69953763D-04  0.13990753D-03
  0.45296868D-16 -0.38371584D-16 -0.45864441D-16 -0.13633490D-04 -0.13633490D-04
  0.27266980D-04  0.47841257D-17  0.11413857D-16  0.22765700D-17  0.12134309D-16
 -0.28976394D-16 -0.21393021D-04 -0.29991600D-16 -0.88589810D-17  0.32089531D-04
 -0.64113280D-17  0.95788163D-16  0.32089531D-04 -0.32674516D-16  0.71933867D-18
 -0.85675634D-18 -0.27033407D-04  0.24447030D-18  0.78254640D-18  0.40550110D-04
 -0.24024863D-17  0.17877226D-17  0.40550110D-04  0.13306537D-16
END DATA
 TOTAL ENERGY =       -0.499949017054 THE VIRIAL(-V/T)=   2.00027487
