 TITLE
GAUSSIAN              1 MOL ORBITALS    114 PRIMITIVES        2 NUCLEI
  H    1    (CENTRE  1)   0.00000000  0.00000000  0.00000000  CHARGE =  1.0
  H    2    (CENTRE  2)   0.00000000  0.00000000  9.25965801  CHARGE =  0.0
CENTRE ASSIGNMENTS    1  1  1  1  1  1  1  1  1  1  1  1  1  1  1  1  1  1  1  1
CENTRE ASSIGNMENTS    1  1  1  1  1  1  1  1  1  1  1  1  1  1  1  1  1  1  1  1
CENTRE ASSIGNMENTS    1  1  1  1  1  1  1  1  1  1  1  1  1  1  1  1  1  2  2  2
CENTRE ASSIGNMENTS    2  2  2  2  2  2  2  2  2  2  2  2  2  2  2  2  2  2  2  2
CENTRE ASSIGNMENTS    2  2  2  2  2  2  2  2  2  2  2  2  2  2  2  2  2  2  2  2
CENTRE ASSIGNMENTS    2  2  2  2  2  2  2  2  2  2  2  2  2  2
TYPE ASSIGNMENTS      1  1  1  1  1  1  1  2  3  4  2  3  4  2  3  4  2  3  4  5
TYPE ASSIGNMENTS      6  7  8  9 10  5  6  7  8  9 10  5  6  7  8  9 10 11 12 13
TYPE ASSIGNMENTS     17 14 15 18 19 16 20 11 12 13 17 14 15 18 19 16 20  1  1  1
TYPE ASSIGNMENTS      1  1  1  1  2  3  4  2  3  4  2  3  4  2  3  4  5  6  7  8
TYPE ASSIGNMENTS      9 10  5  6  7  8  9 10  5  6  7  8  9 10 11 12 13 17 14 15
TYPE ASSIGNMENTS     18 19 16 20 11 12 13 17 14 15 18 19 16 20
EXPONENTS  0.8264000D+02 0.1241000D+02 0.2824000D+01 0.7977000D+00 0.2581000D+00
EXPONENTS  0.8989000D-01 0.2363000D-01 0.2292000D+01 0.2292000D+01 0.2292000D+01
EXPONENTS  0.8380000D+00 0.8380000D+00 0.8380000D+00 0.2920000D+00 0.2920000D+00
EXPONENTS  0.2920000D+00 0.8480000D-01 0.8480000D-01 0.8480000D-01 0.2062000D+01
EXPONENTS  0.2062000D+01 0.2062000D+01 0.2062000D+01 0.2062000D+01 0.2062000D+01
EXPONENTS  0.6620000D+00 0.6620000D+00 0.6620000D+00 0.6620000D+00 0.6620000D+00
EXPONENTS  0.6620000D+00 0.1900000D+00 0.1900000D+00 0.1900000D+00 0.1900000D+00
EXPONENTS  0.1900000D+00 0.1900000D+00 0.1397000D+01 0.1397000D+01 0.1397000D+01
EXPONENTS  0.1397000D+01 0.1397000D+01 0.1397000D+01 0.1397000D+01 0.1397000D+01
EXPONENTS  0.1397000D+01 0.1397000D+01 0.3600000D+00 0.3600000D+00 0.3600000D+00
EXPONENTS  0.3600000D+00 0.3600000D+00 0.3600000D+00 0.3600000D+00 0.3600000D+00
EXPONENTS  0.3600000D+00 0.3600000D+00 0.8264000D+02 0.1241000D+02 0.2824000D+01
EXPONENTS  0.7977000D+00 0.2581000D+00 0.8989000D-01 0.2363000D-01 0.2292000D+01
EXPONENTS  0.2292000D+01 0.2292000D+01 0.8380000D+00 0.8380000D+00 0.8380000D+00
EXPONENTS  0.2920000D+00 0.2920000D+00 0.2920000D+00 0.8480000D-01 0.8480000D-01
EXPONENTS  0.8480000D-01 0.2062000D+01 0.2062000D+01 0.2062000D+01 0.2062000D+01
EXPONENTS  0.2062000D+01 0.2062000D+01 0.6620000D+00 0.6620000D+00 0.6620000D+00
EXPONENTS  0.6620000D+00 0.6620000D+00 0.6620000D+00 0.1900000D+00 0.1900000D+00
EXPONENTS  0.1900000D+00 0.1900000D+00 0.1900000D+00 0.1900000D+00 0.1397000D+01
EXPONENTS  0.1397000D+01 0.1397000D+01 0.1397000D+01 0.1397000D+01 0.1397000D+01
EXPONENTS  0.1397000D+01 0.1397000D+01 0.1397000D+01 0.1397000D+01 0.3600000D+00
EXPONENTS  0.3600000D+00 0.3600000D+00 0.3600000D+00 0.3600000D+00 0.3600000D+00
EXPONENTS  0.3600000D+00 0.3600000D+00 0.3600000D+00 0.3600000D+00
MO    1     MO 0.0        OCC NO =    1.0000000  ORB. ENERGY =   -0.499948
  0.39212634D-01  0.72350491D-01  0.11742269D+00  0.15418862D+00  0.12888898D+00
  0.34167434D-01  0.16895523D-03  0.35773693D-15 -0.27333088D-15  0.10377843D-04
 -0.36097669D-15  0.52930859D-16 -0.12689922D-04  0.11439466D-15 -0.11360798D-16
  0.92670385D-05 -0.63206282D-17 -0.12379578D-16 -0.39704768D-05  0.10711542D-05
  0.10711542D-05 -0.21423084D-05 -0.34000900D-15 -0.27473507D-15 -0.55361759D-16
 -0.69781743D-06 -0.69781743D-06  0.13956349D-05  0.10342620D-15  0.15778767D-15
  0.33217578D-16  0.24989239D-06  0.24989239D-06 -0.49978478D-06 -0.34112627D-16
 -0.30691298D-17  0.12183331D-16  0.50521182D-16 -0.27683892D-16  0.18968324D-06
 -0.73057129D-17  0.57535012D-16 -0.28452486D-06 -0.14425783D-15  0.25516665D-16
 -0.28452486D-06  0.75377925D-16 -0.37057487D-18  0.35644515D-17 -0.52152610D-07
 -0.10061865D-18 -0.76434617D-18  0.78228915D-07  0.12123433D-17 -0.99290083D-17
  0.78228915D-07  0.38828666D-18  0.18369528D-05  0.33893269D-05  0.55007765D-05
 -0.16393219D-04  0.18262386D-05  0.17758326D-04  0.69140928D-05  0.14404384D-16
  0.26968947D-15 -0.56899182D-04 -0.86203199D-17 -0.84393137D-16  0.68066223D-04
 -0.11431641D-17  0.50283262D-17 -0.40804313D-04 -0.65787660D-18  0.26426295D-18
 -0.89957968D-05  0.16885406D-04  0.16885406D-04 -0.33770813D-04 -0.12291061D-14
  0.39043483D-15  0.21874220D-14 -0.93322995D-05 -0.93322995D-05  0.18664599D-04
  0.14513856D-15 -0.83101928D-16 -0.19035967D-15  0.36294148D-07  0.36294148D-07
 -0.72588297D-07 -0.67771806D-17  0.56271354D-17  0.78091936D-17 -0.26400134D-17
  0.50771646D-17 -0.12612888D-04  0.20030937D-16  0.42051563D-17  0.18919333D-04
 -0.12110896D-16 -0.19436650D-16  0.18919333D-04 -0.14086040D-16  0.41297700D-18
 -0.33663138D-18  0.29289075D-05 -0.82706439D-18  0.42245087D-18 -0.43933612D-05
 -0.41186662D-18  0.58744328D-18 -0.43933612D-05 -0.70622018D-19
END DATA
 TOTAL ENERGY =       -0.499948387384 THE VIRIAL(-V/T)=   2.00028009
