 TITLE
GAUSSIAN              1 MOL ORBITALS    114 PRIMITIVES        2 NUCLEI
  H    1    (CENTRE  1)   0.00000000  0.00000000  0.00000000  CHARGE =  1.0
  H    2    (CENTRE  2)   0.00000000  0.00000000  5.48020576  CHARGE =  0.0
CENTRE ASSIGNMENTS    1  1  1  1  1  1  1  1  1  1  1  1  1  1  1  1  1  1  1  1
CENTRE ASSIGNMENTS    1  1  1  1  1  1  1  1  1  1  1  1  1  1  1  1  1  1  1  1
CENTRE ASSIGNMENTS    1  1  1  1  1  1  1  1  1  1  1  1  1  1  1  1  1  2  2  2
CENTRE ASSIGNMENTS    2  2  2  2  2  2  2  2  2  2  2  2  2  2  2  2  2  2  2  2
CENTRE ASSIGNMENTS    2  2  2  2  2  2  2  2  2  2  2  2  2  2  2  2  2  2  2  2
CENTRE ASSIGNMENTS    2  2  2  2  2  2  2  2  2  2  2  2  2  2
TYPE ASSIGNMENTS      1  1  1  1  1  1  1  2  3  4  2  3  4  2  3  4  2  3  4  5
TYPE ASSIGNMENTS      6  7  8  9 10  5  6  7  8  9 10  5  6  7  8  9 10 11 12 13
TYPE ASSIGNMENTS     17 14 15 18 19 16 20 11 12 13 17 14 15 18 19 16 20  1  1  1
TYPE ASSIGNMENTS      1  1  1  1  2  3  4  2  3  4  2  3  4  2  3  4  5  6  7  8
TYPE ASSIGNMENTS      9 10  5  6  7  8  9 10  5  6  7  8  9 10 11 12 13 17 14 15
TYPE ASSIGNMENTS     18 19 16 20 11 12 13 17 14 15 18 19 16 20
EXPONENTS  0.8264000D+02 0.1241000D+02 0.2824000D+01 0.7977000D+00 0.2581000D+00
EXPONENTS  0.8989000D-01 0.2363000D-01 0.2292000D+01 0.2292000D+01 0.2292000D+01
EXPONENTS  0.8380000D+00 0.8380000D+00 0.8380000D+00 0.2920000D+00 0.2920000D+00
EXPONENTS  0.2920000D+00 0.8480000D-01 0.8480000D-01 0.8480000D-01 0.2062000D+01
EXPONENTS  0.2062000D+01 0.2062000D+01 0.2062000D+01 0.2062000D+01 0.2062000D+01
EXPONENTS  0.6620000D+00 0.6620000D+00 0.6620000D+00 0.6620000D+00 0.6620000D+00
EXPONENTS  0.6620000D+00 0.1900000D+00 0.1900000D+00 0.1900000D+00 0.1900000D+00
EXPONENTS  0.1900000D+00 0.1900000D+00 0.1397000D+01 0.1397000D+01 0.1397000D+01
EXPONENTS  0.1397000D+01 0.1397000D+01 0.1397000D+01 0.1397000D+01 0.1397000D+01
EXPONENTS  0.1397000D+01 0.1397000D+01 0.3600000D+00 0.3600000D+00 0.3600000D+00
EXPONENTS  0.3600000D+00 0.3600000D+00 0.3600000D+00 0.3600000D+00 0.3600000D+00
EXPONENTS  0.3600000D+00 0.3600000D+00 0.8264000D+02 0.1241000D+02 0.2824000D+01
EXPONENTS  0.7977000D+00 0.2581000D+00 0.8989000D-01 0.2363000D-01 0.2292000D+01
EXPONENTS  0.2292000D+01 0.2292000D+01 0.8380000D+00 0.8380000D+00 0.8380000D+00
EXPONENTS  0.2920000D+00 0.2920000D+00 0.2920000D+00 0.8480000D-01 0.8480000D-01
EXPONENTS  0.8480000D-01 0.2062000D+01 0.2062000D+01 0.2062000D+01 0.2062000D+01
EXPONENTS  0.2062000D+01 0.2062000D+01 0.6620000D+00 0.6620000D+00 0.6620000D+00
EXPONENTS  0.6620000D+00 0.6620000D+00 0.6620000D+00 0.1900000D+00 0.1900000D+00
EXPONENTS  0.1900000D+00 0.1900000D+00 0.1900000D+00 0.1900000D+00 0.1397000D+01
EXPONENTS  0.1397000D+01 0.1397000D+01 0.1397000D+01 0.1397000D+01 0.1397000D+01
EXPONENTS  0.1397000D+01 0.1397000D+01 0.1397000D+01 0.1397000D+01 0.3600000D+00
EXPONENTS  0.3600000D+00 0.3600000D+00 0.3600000D+00 0.3600000D+00 0.3600000D+00
EXPONENTS  0.3600000D+00 0.3600000D+00 0.3600000D+00 0.3600000D+00
MO    1     MO 0.0        OCC NO =    1.0000000  ORB. ENERGY =   -0.499949
  0.39209123D-01  0.72344012D-01  0.11741217D+00  0.15422395D+00  0.12884309D+00
  0.34200252D-01  0.18125691D-03 -0.76778697D-16 -0.33823646D-16 -0.98271766D-04
  0.44807291D-16 -0.68864573D-16  0.11446399D-03  0.27883475D-16  0.94077700D-16
 -0.71840991D-04 -0.53999286D-17 -0.13898283D-16  0.37556382D-04 -0.16032061D-06
 -0.16032061D-06  0.32064122D-06  0.10706530D-15 -0.31334402D-15  0.15804485D-15
 -0.62603224D-06 -0.62603224D-06  0.12520645D-05  0.71276451D-16  0.68421659D-16
  0.19682963D-16 -0.68561646D-06 -0.68561646D-06  0.13712329D-05  0.19791975D-16
  0.57934637D-17 -0.10661439D-16 -0.51481129D-16  0.43566910D-16  0.25325700D-04
  0.98019875D-16  0.59682667D-16 -0.37988549D-04  0.56423513D-16 -0.19038340D-15
 -0.37988549D-04  0.23008862D-15 -0.34484772D-18 -0.17734695D-18 -0.74565895D-05
  0.35580133D-17 -0.23729137D-17  0.11184884D-04 -0.25234701D-17  0.29049546D-17
  0.11184884D-04 -0.11359372D-16  0.72568098D-05  0.13389403D-04  0.21730601D-04
 -0.73169585D-04 -0.17219364D-04 -0.49393823D-04  0.75008234D-05  0.49820546D-16
 -0.40287163D-16 -0.98487783D-04 -0.53793425D-17 -0.20599927D-16  0.15863116D-03
  0.46522288D-17  0.16578979D-16 -0.41472497D-04 -0.17253912D-17  0.57371654D-18
  0.56435771D-04  0.83888482D-04  0.83888482D-04 -0.16777696D-03 -0.95198182D-16
  0.11811422D-14 -0.18120845D-14 -0.40847919D-04 -0.40847919D-04  0.81695837D-04
  0.50351504D-16 -0.10013786D-15  0.13614264D-15 -0.10667266D-04 -0.10667266D-04
  0.21334532D-04  0.10577034D-16  0.13700503D-16 -0.23886960D-17 -0.38702890D-16
  0.14215042D-17  0.66328546D-04 -0.43179748D-17  0.43470079D-16 -0.99492819D-04
  0.12042664D-15 -0.47734592D-16 -0.99492819D-04 -0.16591449D-16  0.23888515D-18
  0.73824613D-18 -0.51260425D-04 -0.68170308D-17 -0.39386080D-17  0.76890638D-04
  0.61003753D-17  0.17238697D-17  0.76890638D-04 -0.74866365D-17
END DATA
 TOTAL ENERGY =       -0.499948979171 THE VIRIAL(-V/T)=   2.00027537
