 TITLE
GAUSSIAN              1 MOL ORBITALS    114 PRIMITIVES        2 NUCLEI
  H    1    (CENTRE  1)   0.00000000  0.00000000  0.00000000  CHARGE =  1.0
  H    2    (CENTRE  2)   0.00000000  0.00000000 11.52732936  CHARGE =  0.0
CENTRE ASSIGNMENTS    1  1  1  1  1  1  1  1  1  1  1  1  1  1  1  1  1  1  1  1
CENTRE ASSIGNMENTS    1  1  1  1  1  1  1  1  1  1  1  1  1  1  1  1  1  1  1  1
CENTRE ASSIGNMENTS    1  1  1  1  1  1  1  1  1  1  1  1  1  1  1  1  1  2  2  2
CENTRE ASSIGNMENTS    2  2  2  2  2  2  2  2  2  2  2  2  2  2  2  2  2  2  2  2
CENTRE ASSIGNMENTS    2  2  2  2  2  2  2  2  2  2  2  2  2  2  2  2  2  2  2  2
CENTRE ASSIGNMENTS    2  2  2  2  2  2  2  2  2  2  2  2  2  2
TYPE ASSIGNMENTS      1  1  1  1  1  1  1  2  3  4  2  3  4  2  3  4  2  3  4  5
TYPE ASSIGNMENTS      6  7  8  9 10  5  6  7  8  9 10  5  6  7  8  9 10 11 12 13
TYPE ASSIGNMENTS     17 14 15 18 19 16 20 11 12 13 17 14 15 18 19 16 20  1  1  1
TYPE ASSIGNMENTS      1  1  1  1  2  3  4  2  3  4  2  3  4  2  3  4  5  6  7  8
TYPE ASSIGNMENTS      9 10  5  6  7  8  9 10  5  6  7  8  9 10 11 12 13 17 14 15
TYPE ASSIGNMENTS     18 19 16 20 11 12 13 17 14 15 18 19 16 20
EXPONENTS  0.8264000D+02 0.1241000D+02 0.2824000D+01 0.7977000D+00 0.2581000D+00
EXPONENTS  0.8989000D-01 0.2363000D-01 0.2292000D+01 0.2292000D+01 0.2292000D+01
EXPONENTS  0.8380000D+00 0.8380000D+00 0.8380000D+00 0.2920000D+00 0.2920000D+00
EXPONENTS  0.2920000D+00 0.8480000D-01 0.8480000D-01 0.8480000D-01 0.2062000D+01
EXPONENTS  0.2062000D+01 0.2062000D+01 0.2062000D+01 0.2062000D+01 0.2062000D+01
EXPONENTS  0.6620000D+00 0.6620000D+00 0.6620000D+00 0.6620000D+00 0.6620000D+00
EXPONENTS  0.6620000D+00 0.1900000D+00 0.1900000D+00 0.1900000D+00 0.1900000D+00
EXPONENTS  0.1900000D+00 0.1900000D+00 0.1397000D+01 0.1397000D+01 0.1397000D+01
EXPONENTS  0.1397000D+01 0.1397000D+01 0.1397000D+01 0.1397000D+01 0.1397000D+01
EXPONENTS  0.1397000D+01 0.1397000D+01 0.3600000D+00 0.3600000D+00 0.3600000D+00
EXPONENTS  0.3600000D+00 0.3600000D+00 0.3600000D+00 0.3600000D+00 0.3600000D+00
EXPONENTS  0.3600000D+00 0.3600000D+00 0.8264000D+02 0.1241000D+02 0.2824000D+01
EXPONENTS  0.7977000D+00 0.2581000D+00 0.8989000D-01 0.2363000D-01 0.2292000D+01
EXPONENTS  0.2292000D+01 0.2292000D+01 0.8380000D+00 0.8380000D+00 0.8380000D+00
EXPONENTS  0.2920000D+00 0.2920000D+00 0.2920000D+00 0.8480000D-01 0.8480000D-01
EXPONENTS  0.8480000D-01 0.2062000D+01 0.2062000D+01 0.2062000D+01 0.2062000D+01
EXPONENTS  0.2062000D+01 0.2062000D+01 0.6620000D+00 0.6620000D+00 0.6620000D+00
EXPONENTS  0.6620000D+00 0.6620000D+00 0.6620000D+00 0.1900000D+00 0.1900000D+00
EXPONENTS  0.1900000D+00 0.1900000D+00 0.1900000D+00 0.1900000D+00 0.1397000D+01
EXPONENTS  0.1397000D+01 0.1397000D+01 0.1397000D+01 0.1397000D+01 0.1397000D+01
EXPONENTS  0.1397000D+01 0.1397000D+01 0.1397000D+01 0.1397000D+01 0.3600000D+00
EXPONENTS  0.3600000D+00 0.3600000D+00 0.3600000D+00 0.3600000D+00 0.3600000D+00
EXPONENTS  0.3600000D+00 0.3600000D+00 0.3600000D+00 0.3600000D+00
MO    1     MO 0.0        OCC NO =    1.0000000  ORB. ENERGY =   -0.499948
  0.39212780D-01  0.72350759D-01  0.11742312D+00  0.15418700D+00  0.12889233D+00
  0.34163112D-01  0.17171088D-03  0.16012503D-15 -0.37903825D-15  0.45011953D-05
 -0.12183044D-15  0.27241184D-15 -0.54926138D-05  0.60974414D-16 -0.10688510D-15
  0.39908525D-05 -0.36734299D-17  0.30311419D-17 -0.17229487D-05  0.31320365D-06
  0.31320365D-06 -0.62640729D-06  0.10500076D-15  0.32780755D-15 -0.55127763D-15
 -0.20612121D-06 -0.20612121D-06  0.41224243D-06 -0.48078230D-16 -0.11704633D-15
  0.13938381D-15  0.74790680D-07  0.74790680D-07 -0.14958136D-06  0.17319691D-16
  0.17790684D-16 -0.17394334D-16 -0.40724790D-16 -0.54467312D-17  0.20284294D-07
  0.13488860D-15 -0.28817338D-16 -0.30426441D-07 -0.12714235D-16  0.45157532D-16
 -0.30426441D-07 -0.14059045D-15  0.96457577D-18 -0.41467810D-17 -0.43594963D-08
  0.34225976D-18  0.12737950D-16  0.65392445D-08 -0.32359871D-17 -0.29760720D-18
  0.65392445D-08  0.81553191D-17 -0.11800239D-05 -0.21772397D-05 -0.35335952D-05
  0.12220853D-04 -0.12875327D-04 -0.72637959D-05  0.97926463D-05 -0.19844961D-15
 -0.25562467D-15  0.52023145D-04  0.23887328D-16  0.12961821D-15 -0.63913785D-04
  0.26708303D-16 -0.34046771D-16  0.47761773D-04 -0.10438450D-16  0.43420265D-17
 -0.18765649D-04 -0.18302226D-04 -0.18302226D-04  0.36604451D-04 -0.13320236D-15
 -0.19457747D-14  0.12224742D-14  0.11633513D-04  0.11633513D-04 -0.23267027D-04
  0.11244544D-16  0.18017396D-15 -0.10013815D-15 -0.41311289D-05 -0.41311289D-05
  0.82622579D-05  0.23161553D-17 -0.15096722D-16  0.28913267D-17  0.11833258D-16
 -0.57273405D-17  0.68828735D-05 -0.18085960D-16  0.24807619D-16 -0.10324310D-04
 -0.17413814D-16 -0.76255975D-17 -0.10324310D-04 -0.25419062D-16  0.69166663D-18
  0.91228344D-18 -0.20313193D-05  0.20528431D-17 -0.26077547D-18  0.30469790D-05
 -0.41278429D-17 -0.24760748D-17  0.30469790D-05  0.33688338D-17
END DATA
 TOTAL ENERGY =       -0.499948370814 THE VIRIAL(-V/T)=   2.00027934
