 TITLE
GAUSSIAN              1 MOL ORBITALS    114 PRIMITIVES        2 NUCLEI
  H    1    (CENTRE  1)   0.00000000  0.00000000  0.00000000  CHARGE =  1.0
  H    2    (CENTRE  2)   0.00000000  0.00000000  7.36993189  CHARGE =  0.0
CENTRE ASSIGNMENTS    1  1  1  1  1  1  1  1  1  1  1  1  1  1  1  1  1  1  1  1
CENTRE ASSIGNMENTS    1  1  1  1  1  1  1  1  1  1  1  1  1  1  1  1  1  1  1  1
CENTRE ASSIGNMENTS    1  1  1  1  1  1  1  1  1  1  1  1  1  1  1  1  1  2  2  2
CENTRE ASSIGNMENTS    2  2  2  2  2  2  2  2  2  2  2  2  2  2  2  2  2  2  2  2
CENTRE ASSIGNMENTS    2  2  2  2  2  2  2  2  2  2  2  2  2  2  2  2  2  2  2  2
CENTRE ASSIGNMENTS    2  2  2  2  2  2  2  2  2  2  2  2  2  2
TYPE ASSIGNMENTS      1  1  1  1  1  1  1  2  3  4  2  3  4  2  3  4  2  3  4  5
TYPE ASSIGNMENTS      6  7  8  9 10  5  6  7  8  9 10  5  6  7  8  9 10 11 12 13
TYPE ASSIGNMENTS     17 14 15 18 19 16 20 11 12 13 17 14 15 18 19 16 20  1  1  1
TYPE ASSIGNMENTS      1  1  1  1  2  3  4  2  3  4  2  3  4  2  3  4  5  6  7  8
TYPE ASSIGNMENTS      9 10  5  6  7  8  9 10  5  6  7  8  9 10 11 12 13 17 14 15
TYPE ASSIGNMENTS     18 19 16 20 11 12 13 17 14 15 18 19 16 20
EXPONENTS  0.8264000D+02 0.1241000D+02 0.2824000D+01 0.7977000D+00 0.2581000D+00
EXPONENTS  0.8989000D-01 0.2363000D-01 0.2292000D+01 0.2292000D+01 0.2292000D+01
EXPONENTS  0.8380000D+00 0.8380000D+00 0.8380000D+00 0.2920000D+00 0.2920000D+00
EXPONENTS  0.2920000D+00 0.8480000D-01 0.8480000D-01 0.8480000D-01 0.2062000D+01
EXPONENTS  0.2062000D+01 0.2062000D+01 0.2062000D+01 0.2062000D+01 0.2062000D+01
EXPONENTS  0.6620000D+00 0.6620000D+00 0.6620000D+00 0.6620000D+00 0.6620000D+00
EXPONENTS  0.6620000D+00 0.1900000D+00 0.1900000D+00 0.1900000D+00 0.1900000D+00
EXPONENTS  0.1900000D+00 0.1900000D+00 0.1397000D+01 0.1397000D+01 0.1397000D+01
EXPONENTS  0.1397000D+01 0.1397000D+01 0.1397000D+01 0.1397000D+01 0.1397000D+01
EXPONENTS  0.1397000D+01 0.1397000D+01 0.3600000D+00 0.3600000D+00 0.3600000D+00
EXPONENTS  0.3600000D+00 0.3600000D+00 0.3600000D+00 0.3600000D+00 0.3600000D+00
EXPONENTS  0.3600000D+00 0.3600000D+00 0.8264000D+02 0.1241000D+02 0.2824000D+01
EXPONENTS  0.7977000D+00 0.2581000D+00 0.8989000D-01 0.2363000D-01 0.2292000D+01
EXPONENTS  0.2292000D+01 0.2292000D+01 0.8380000D+00 0.8380000D+00 0.8380000D+00
EXPONENTS  0.2920000D+00 0.2920000D+00 0.2920000D+00 0.8480000D-01 0.8480000D-01
EXPONENTS  0.8480000D-01 0.2062000D+01 0.2062000D+01 0.2062000D+01 0.2062000D+01
EXPONENTS  0.2062000D+01 0.2062000D+01 0.6620000D+00 0.6620000D+00 0.6620000D+00
EXPONENTS  0.6620000D+00 0.6620000D+00 0.6620000D+00 0.1900000D+00 0.1900000D+00
EXPONENTS  0.1900000D+00 0.1900000D+00 0.1900000D+00 0.1900000D+00 0.1397000D+01
EXPONENTS  0.1397000D+01 0.1397000D+01 0.1397000D+01 0.1397000D+01 0.1397000D+01
EXPONENTS  0.1397000D+01 0.1397000D+01 0.1397000D+01 0.1397000D+01 0.3600000D+00
EXPONENTS  0.3600000D+00 0.3600000D+00 0.3600000D+00 0.3600000D+00 0.3600000D+00
EXPONENTS  0.3600000D+00 0.3600000D+00 0.3600000D+00 0.3600000D+00
MO    1     MO 0.0        OCC NO =    1.0000000  ORB. ENERGY =   -0.499949
  0.39209784D-01  0.72345231D-01  0.11741415D+00  0.15421975D+00  0.12884589D+00
  0.34184240D-01  0.17498630D-03 -0.41408305D-16 -0.42144949D-16 -0.56802512D-04
 -0.14692062D-15 -0.11706930D-16  0.70266267D-04  0.11872987D-15 -0.10890943D-16
 -0.53344467D-04 -0.21122433D-16  0.43804143D-17  0.22358818D-04 -0.20118280D-04
 -0.20118280D-04  0.40236560D-04  0.38755816D-16 -0.28427490D-15  0.45545204D-16
  0.12945505D-04  0.12945505D-04 -0.25891010D-04  0.11089367D-16  0.29815562D-16
 -0.11306204D-16 -0.46780680D-05 -0.46780680D-05  0.93561359D-05  0.82208526D-17
  0.71150989D-17 -0.13348316D-17  0.12811415D-16  0.14784981D-16 -0.60573460D-05
  0.36322880D-16 -0.53765299D-16  0.90860190D-05 -0.74757124D-16  0.94103565D-17
  0.90860190D-05 -0.10463109D-15 -0.33156744D-17 -0.34129659D-17  0.17462976D-05
 -0.21782129D-17  0.31295832D-18 -0.26194464D-05  0.12125236D-16  0.99259395D-17
 -0.26194464D-05  0.84772753D-17  0.66528653D-06  0.12275076D-05  0.19922082D-05
 -0.19590187D-04  0.88719631D-04 -0.32918855D-04  0.76221101D-05 -0.62135707D-15
 -0.87618478D-15  0.67782268D-04  0.14673565D-15  0.40651949D-15 -0.76184279D-04
 -0.52470313D-16 -0.12957603D-15  0.11488922D-04  0.11933573D-16  0.23961419D-16
  0.27812399D-04  0.43880261D-04  0.43880261D-04 -0.87760521D-04 -0.23962805D-15
  0.17043575D-14 -0.71249012D-15 -0.34851747D-04 -0.34851747D-04  0.69703493D-04
  0.31765909D-16 -0.17653989D-15  0.67320913D-16  0.24615896D-04  0.24615896D-04
 -0.49231792D-04 -0.47744463D-18  0.14185500D-16 -0.12197577D-16  0.95003222D-17
  0.44303456D-17 -0.48691616D-04 -0.17679907D-16 -0.39255335D-17  0.73037424D-04
 -0.10821060D-16 -0.93655032D-17  0.73037424D-04  0.26711732D-16 -0.10259179D-17
 -0.33420359D-18  0.20245851D-04 -0.50287722D-18  0.12334247D-17 -0.30368777D-04
  0.35806309D-17 -0.23081396D-18 -0.30368777D-04 -0.17186069D-17
END DATA
 TOTAL ENERGY =       -0.499948686124 THE VIRIAL(-V/T)=   2.00027850
