 TITLE
GAUSSIAN              1 MOL ORBITALS    114 PRIMITIVES        2 NUCLEI
  H    1    (CENTRE  1)   0.00000000  0.00000000  0.00000000  CHARGE =  1.0
  H    2    (CENTRE  2)   0.00000000  0.00000000  3.96842486  CHARGE =  0.0
CENTRE ASSIGNMENTS    1  1  1  1  1  1  1  1  1  1  1  1  1  1  1  1  1  1  1  1
CENTRE ASSIGNMENTS    1  1  1  1  1  1  1  1  1  1  1  1  1  1  1  1  1  1  1  1
CENTRE ASSIGNMENTS    1  1  1  1  1  1  1  1  1  1  1  1  1  1  1  1  1  2  2  2
CENTRE ASSIGNMENTS    2  2  2  2  2  2  2  2  2  2  2  2  2  2  2  2  2  2  2  2
CENTRE ASSIGNMENTS    2  2  2  2  2  2  2  2  2  2  2  2  2  2  2  2  2  2  2  2
CENTRE ASSIGNMENTS    2  2  2  2  2  2  2  2  2  2  2  2  2  2
TYPE ASSIGNMENTS      1  1  1  1  1  1  1  2  3  4  2  3  4  2  3  4  2  3  4  5
TYPE ASSIGNMENTS      6  7  8  9 10  5  6  7  8  9 10  5  6  7  8  9 10 11 12 13
TYPE ASSIGNMENTS     17 14 15 18 19 16 20 11 12 13 17 14 15 18 19 16 20  1  1  1
TYPE ASSIGNMENTS      1  1  1  1  2  3  4  2  3  4  2  3  4  2  3  4  5  6  7  8
TYPE ASSIGNMENTS      9 10  5  6  7  8  9 10  5  6  7  8  9 10 11 12 13 17 14 15
TYPE ASSIGNMENTS     18 19 16 20 11 12 13 17 14 15 18 19 16 20
EXPONENTS  0.8264000D+02 0.1241000D+02 0.2824000D+01 0.7977000D+00 0.2581000D+00
EXPONENTS  0.8989000D-01 0.2363000D-01 0.2292000D+01 0.2292000D+01 0.2292000D+01
EXPONENTS  0.8380000D+00 0.8380000D+00 0.8380000D+00 0.2920000D+00 0.2920000D+00
EXPONENTS  0.2920000D+00 0.8480000D-01 0.8480000D-01 0.8480000D-01 0.2062000D+01
EXPONENTS  0.2062000D+01 0.2062000D+01 0.2062000D+01 0.2062000D+01 0.2062000D+01
EXPONENTS  0.6620000D+00 0.6620000D+00 0.6620000D+00 0.6620000D+00 0.6620000D+00
EXPONENTS  0.6620000D+00 0.1900000D+00 0.1900000D+00 0.1900000D+00 0.1900000D+00
EXPONENTS  0.1900000D+00 0.1900000D+00 0.1397000D+01 0.1397000D+01 0.1397000D+01
EXPONENTS  0.1397000D+01 0.1397000D+01 0.1397000D+01 0.1397000D+01 0.1397000D+01
EXPONENTS  0.1397000D+01 0.1397000D+01 0.3600000D+00 0.3600000D+00 0.3600000D+00
EXPONENTS  0.3600000D+00 0.3600000D+00 0.3600000D+00 0.3600000D+00 0.3600000D+00
EXPONENTS  0.3600000D+00 0.3600000D+00 0.8264000D+02 0.1241000D+02 0.2824000D+01
EXPONENTS  0.7977000D+00 0.2581000D+00 0.8989000D-01 0.2363000D-01 0.2292000D+01
EXPONENTS  0.2292000D+01 0.2292000D+01 0.8380000D+00 0.8380000D+00 0.8380000D+00
EXPONENTS  0.2920000D+00 0.2920000D+00 0.2920000D+00 0.8480000D-01 0.8480000D-01
EXPONENTS  0.8480000D-01 0.2062000D+01 0.2062000D+01 0.2062000D+01 0.2062000D+01
EXPONENTS  0.2062000D+01 0.2062000D+01 0.6620000D+00 0.6620000D+00 0.6620000D+00
EXPONENTS  0.6620000D+00 0.6620000D+00 0.6620000D+00 0.1900000D+00 0.1900000D+00
EXPONENTS  0.1900000D+00 0.1900000D+00 0.1900000D+00 0.1900000D+00 0.1397000D+01
EXPONENTS  0.1397000D+01 0.1397000D+01 0.1397000D+01 0.1397000D+01 0.1397000D+01
EXPONENTS  0.1397000D+01 0.1397000D+01 0.1397000D+01 0.1397000D+01 0.3600000D+00
EXPONENTS  0.3600000D+00 0.3600000D+00 0.3600000D+00 0.3600000D+00 0.3600000D+00
EXPONENTS  0.3600000D+00 0.3600000D+00 0.3600000D+00 0.3600000D+00
MO    1     MO 0.0        OCC NO =    1.0000000  ORB. ENERGY =   -0.499950
  0.39209460D-01  0.72344634D-01  0.11741318D+00  0.15422356D+00  0.12872380D+00
  0.34709163D-01  0.20555265D-03 -0.39497227D-15  0.37869891D-15  0.29637412D-04
  0.43287600D-15 -0.31713922D-15 -0.64331918D-04 -0.27288606D-15  0.11972396D-15
  0.82897255D-04  0.44375563D-16 -0.64333778D-17  0.21300093D-03  0.12480110D-06
  0.12480110D-06 -0.24960220D-06 -0.21380466D-15 -0.41802293D-16  0.13379950D-15
  0.61382036D-05  0.61382036D-05 -0.12276407D-04  0.15377071D-16  0.42364356D-16
 -0.10128993D-15 -0.32016776D-04 -0.32016776D-04  0.64033551D-04  0.58779364D-17
 -0.20963632D-16  0.10612565D-16 -0.73215167D-16 -0.10871516D-15 -0.12832304D-04
 -0.14484192D-16  0.24105142D-16  0.19248456D-04  0.23412969D-15  0.30204034D-15
  0.19248456D-04  0.21085817D-16  0.20968923D-17  0.65277264D-17  0.14651647D-04
  0.13147342D-16  0.63920731D-17 -0.21977471D-04 -0.19438019D-16 -0.25975252D-16
 -0.21977471D-04 -0.18501648D-16  0.14849792D-05  0.27399070D-05  0.44467873D-05
  0.67627564D-04  0.18232323D-03 -0.63885598D-03 -0.55015700D-05  0.74632712D-16
  0.17681666D-15 -0.16863248D-03  0.23631604D-16 -0.12188824D-15  0.33168806D-04
  0.87243919D-17  0.77856415D-16 -0.10617227D-03 -0.97519507D-17 -0.15690143D-16
  0.23929406D-03 -0.10295199D-03 -0.10295199D-03  0.20590397D-03 -0.10536475D-14
  0.77134381D-15  0.10326181D-14  0.10296524D-03  0.10296524D-03 -0.20593048D-03
  0.79530673D-16 -0.12512657D-15 -0.21396354D-15  0.12802071D-04  0.12802071D-04
 -0.25604143D-04 -0.74048207D-17  0.82960682D-17  0.17155565D-16  0.46631403D-16
  0.19859887D-16  0.12169059D-03 -0.38608075D-16 -0.51331854D-16 -0.18253589D-03
 -0.10128613D-15 -0.82478075D-17 -0.18253589D-03  0.16025891D-15 -0.11056522D-16
 -0.66991959D-18  0.65367299D-04 -0.77780124D-17  0.97529757D-18 -0.98050948D-04
  0.40947579D-16  0.10344612D-17 -0.98050948D-04 -0.98338964D-17
END DATA
 TOTAL ENERGY =       -0.499949592866 THE VIRIAL(-V/T)=   2.00027025
