 TITLE
GAUSSIAN              1 MOL ORBITALS    114 PRIMITIVES        2 NUCLEI
  H    1    (CENTRE  1)   0.00000000  0.00000000  0.00000000  CHARGE =  1.0
  H    2    (CENTRE  2)   0.00000000  0.00000000  6.80301405  CHARGE =  0.0
CENTRE ASSIGNMENTS    1  1  1  1  1  1  1  1  1  1  1  1  1  1  1  1  1  1  1  1
CENTRE ASSIGNMENTS    1  1  1  1  1  1  1  1  1  1  1  1  1  1  1  1  1  1  1  1
CENTRE ASSIGNMENTS    1  1  1  1  1  1  1  1  1  1  1  1  1  1  1  1  1  2  2  2
CENTRE ASSIGNMENTS    2  2  2  2  2  2  2  2  2  2  2  2  2  2  2  2  2  2  2  2
CENTRE ASSIGNMENTS    2  2  2  2  2  2  2  2  2  2  2  2  2  2  2  2  2  2  2  2
CENTRE ASSIGNMENTS    2  2  2  2  2  2  2  2  2  2  2  2  2  2
TYPE ASSIGNMENTS      1  1  1  1  1  1  1  2  3  4  2  3  4  2  3  4  2  3  4  5
TYPE ASSIGNMENTS      6  7  8  9 10  5  6  7  8  9 10  5  6  7  8  9 10 11 12 13
TYPE ASSIGNMENTS     17 14 15 18 19 16 20 11 12 13 17 14 15 18 19 16 20  1  1  1
TYPE ASSIGNMENTS      1  1  1  1  2  3  4  2  3  4  2  3  4  2  3  4  5  6  7  8
TYPE ASSIGNMENTS      9 10  5  6  7  8  9 10  5  6  7  8  9 10 11 12 13 17 14 15
TYPE ASSIGNMENTS     18 19 16 20 11 12 13 17 14 15 18 19 16 20
EXPONENTS  0.8264000D+02 0.1241000D+02 0.2824000D+01 0.7977000D+00 0.2581000D+00
EXPONENTS  0.8989000D-01 0.2363000D-01 0.2292000D+01 0.2292000D+01 0.2292000D+01
EXPONENTS  0.8380000D+00 0.8380000D+00 0.8380000D+00 0.2920000D+00 0.2920000D+00
EXPONENTS  0.2920000D+00 0.8480000D-01 0.8480000D-01 0.8480000D-01 0.2062000D+01
EXPONENTS  0.2062000D+01 0.2062000D+01 0.2062000D+01 0.2062000D+01 0.2062000D+01
EXPONENTS  0.6620000D+00 0.6620000D+00 0.6620000D+00 0.6620000D+00 0.6620000D+00
EXPONENTS  0.6620000D+00 0.1900000D+00 0.1900000D+00 0.1900000D+00 0.1900000D+00
EXPONENTS  0.1900000D+00 0.1900000D+00 0.1397000D+01 0.1397000D+01 0.1397000D+01
EXPONENTS  0.1397000D+01 0.1397000D+01 0.1397000D+01 0.1397000D+01 0.1397000D+01
EXPONENTS  0.1397000D+01 0.1397000D+01 0.3600000D+00 0.3600000D+00 0.3600000D+00
EXPONENTS  0.3600000D+00 0.3600000D+00 0.3600000D+00 0.3600000D+00 0.3600000D+00
EXPONENTS  0.3600000D+00 0.3600000D+00 0.8264000D+02 0.1241000D+02 0.2824000D+01
EXPONENTS  0.7977000D+00 0.2581000D+00 0.8989000D-01 0.2363000D-01 0.2292000D+01
EXPONENTS  0.2292000D+01 0.2292000D+01 0.8380000D+00 0.8380000D+00 0.8380000D+00
EXPONENTS  0.2920000D+00 0.2920000D+00 0.2920000D+00 0.8480000D-01 0.8480000D-01
EXPONENTS  0.8480000D-01 0.2062000D+01 0.2062000D+01 0.2062000D+01 0.2062000D+01
EXPONENTS  0.2062000D+01 0.2062000D+01 0.6620000D+00 0.6620000D+00 0.6620000D+00
EXPONENTS  0.6620000D+00 0.6620000D+00 0.6620000D+00 0.1900000D+00 0.1900000D+00
EXPONENTS  0.1900000D+00 0.1900000D+00 0.1900000D+00 0.1900000D+00 0.1397000D+01
EXPONENTS  0.1397000D+01 0.1397000D+01 0.1397000D+01 0.1397000D+01 0.1397000D+01
EXPONENTS  0.1397000D+01 0.1397000D+01 0.1397000D+01 0.1397000D+01 0.3600000D+00
EXPONENTS  0.3600000D+00 0.3600000D+00 0.3600000D+00 0.3600000D+00 0.3600000D+00
EXPONENTS  0.3600000D+00 0.3600000D+00 0.3600000D+00 0.3600000D+00
MO    1     MO 0.0        OCC NO =    1.0000000  ORB. ENERGY =   -0.499949
  0.39208893D-01  0.72343587D-01  0.11741148D+00  0.15423066D+00  0.12882561D+00
  0.34198661D-01  0.17601580D-03  0.18505163D-15  0.49086440D-16 -0.63363109D-04
 -0.17927906D-15 -0.75973214D-17  0.79699586D-04  0.10051762D-15 -0.13483904D-17
 -0.64245857D-04 -0.19682881D-16 -0.83079974D-17  0.31460808D-04 -0.29465946D-04
 -0.29465946D-04  0.58931892D-04  0.25037322D-15 -0.26262575D-15  0.21133016D-15
  0.19274976D-04  0.19274976D-04 -0.38549952D-04 -0.78405963D-16  0.81500398D-16
 -0.13985645D-15 -0.74486404D-05 -0.74486404D-05  0.14897281D-04 -0.81289728D-18
 -0.25100431D-17  0.23614569D-16  0.16239210D-16 -0.36756711D-16 -0.11835446D-04
  0.43591023D-16 -0.10625177D-15  0.17753169D-04 -0.92308652D-16  0.21652190D-15
  0.17753169D-04 -0.15141336D-15 -0.43486110D-18  0.12697578D-17  0.35964765D-05
 -0.10089195D-16  0.54553156D-17 -0.53947148D-05  0.11393779D-16 -0.92645891D-17
 -0.53947148D-05 -0.67012165D-17 -0.18111769D-05 -0.33417683D-05 -0.54235903D-05
  0.18130408D-04  0.46495885D-04 -0.36264863D-04  0.67425373D-05  0.24469877D-15
  0.52109819D-15  0.59743826D-04 -0.17497911D-15 -0.16767181D-15 -0.90465079D-04
  0.52444158D-16  0.56899617D-16  0.66810377D-04 -0.75207393D-17 -0.14355566D-16
  0.35386335D-04 -0.39207412D-05 -0.39207412D-05  0.78414824D-05 -0.11308962D-14
 -0.57692732D-15  0.53950530D-15 -0.18623303D-05 -0.18623303D-05  0.37246606D-05
  0.68419194D-16  0.79042012D-16 -0.61975282D-16  0.20064643D-04  0.20064643D-04
 -0.40129285D-04 -0.37164115D-17 -0.26849034D-17  0.16290012D-17 -0.27194090D-16
 -0.13798691D-16  0.37327991D-04 -0.38456604D-16  0.18006315D-18 -0.55991987D-04
  0.12003888D-15  0.41216009D-16 -0.55991987D-04  0.55339718D-16  0.15512213D-17
 -0.30905847D-17 -0.33198552D-05  0.40096776D-17 -0.14961544D-17  0.49797828D-05
 -0.86633416D-17  0.10767908D-16  0.49797828D-05  0.33993138D-17
END DATA
 TOTAL ENERGY =       -0.499948681387 THE VIRIAL(-V/T)=   2.00027838
