 TITLE
GAUSSIAN              1 MOL ORBITALS    114 PRIMITIVES        2 NUCLEI
  H    1    (CENTRE  1)   0.00000000  0.00000000  0.00000000  CHARGE =  1.0
  H    2    (CENTRE  2)   0.00000000  0.00000000 10.01554846  CHARGE =  0.0
CENTRE ASSIGNMENTS    1  1  1  1  1  1  1  1  1  1  1  1  1  1  1  1  1  1  1  1
CENTRE ASSIGNMENTS    1  1  1  1  1  1  1  1  1  1  1  1  1  1  1  1  1  1  1  1
CENTRE ASSIGNMENTS    1  1  1  1  1  1  1  1  1  1  1  1  1  1  1  1  1  2  2  2
CENTRE ASSIGNMENTS    2  2  2  2  2  2  2  2  2  2  2  2  2  2  2  2  2  2  2  2
CENTRE ASSIGNMENTS    2  2  2  2  2  2  2  2  2  2  2  2  2  2  2  2  2  2  2  2
CENTRE ASSIGNMENTS    2  2  2  2  2  2  2  2  2  2  2  2  2  2
TYPE ASSIGNMENTS      1  1  1  1  1  1  1  2  3  4  2  3  4  2  3  4  2  3  4  5
TYPE ASSIGNMENTS      6  7  8  9 10  5  6  7  8  9 10  5  6  7  8  9 10 11 12 13
TYPE ASSIGNMENTS     17 14 15 18 19 16 20 11 12 13 17 14 15 18 19 16 20  1  1  1
TYPE ASSIGNMENTS      1  1  1  1  2  3  4  2  3  4  2  3  4  2  3  4  5  6  7  8
TYPE ASSIGNMENTS      9 10  5  6  7  8  9 10  5  6  7  8  9 10 11 12 13 17 14 15
TYPE ASSIGNMENTS     18 19 16 20 11 12 13 17 14 15 18 19 16 20
EXPONENTS  0.8264000D+02 0.1241000D+02 0.2824000D+01 0.7977000D+00 0.2581000D+00
EXPONENTS  0.8989000D-01 0.2363000D-01 0.2292000D+01 0.2292000D+01 0.2292000D+01
EXPONENTS  0.8380000D+00 0.8380000D+00 0.8380000D+00 0.2920000D+00 0.2920000D+00
EXPONENTS  0.2920000D+00 0.8480000D-01 0.8480000D-01 0.8480000D-01 0.2062000D+01
EXPONENTS  0.2062000D+01 0.2062000D+01 0.2062000D+01 0.2062000D+01 0.2062000D+01
EXPONENTS  0.6620000D+00 0.6620000D+00 0.6620000D+00 0.6620000D+00 0.6620000D+00
EXPONENTS  0.6620000D+00 0.1900000D+00 0.1900000D+00 0.1900000D+00 0.1900000D+00
EXPONENTS  0.1900000D+00 0.1900000D+00 0.1397000D+01 0.1397000D+01 0.1397000D+01
EXPONENTS  0.1397000D+01 0.1397000D+01 0.1397000D+01 0.1397000D+01 0.1397000D+01
EXPONENTS  0.1397000D+01 0.1397000D+01 0.3600000D+00 0.3600000D+00 0.3600000D+00
EXPONENTS  0.3600000D+00 0.3600000D+00 0.3600000D+00 0.3600000D+00 0.3600000D+00
EXPONENTS  0.3600000D+00 0.3600000D+00 0.8264000D+02 0.1241000D+02 0.2824000D+01
EXPONENTS  0.7977000D+00 0.2581000D+00 0.8989000D-01 0.2363000D-01 0.2292000D+01
EXPONENTS  0.2292000D+01 0.2292000D+01 0.8380000D+00 0.8380000D+00 0.8380000D+00
EXPONENTS  0.2920000D+00 0.2920000D+00 0.2920000D+00 0.8480000D-01 0.8480000D-01
EXPONENTS  0.8480000D-01 0.2062000D+01 0.2062000D+01 0.2062000D+01 0.2062000D+01
EXPONENTS  0.2062000D+01 0.2062000D+01 0.6620000D+00 0.6620000D+00 0.6620000D+00
EXPONENTS  0.6620000D+00 0.6620000D+00 0.6620000D+00 0.1900000D+00 0.1900000D+00
EXPONENTS  0.1900000D+00 0.1900000D+00 0.1900000D+00 0.1900000D+00 0.1397000D+01
EXPONENTS  0.1397000D+01 0.1397000D+01 0.1397000D+01 0.1397000D+01 0.1397000D+01
EXPONENTS  0.1397000D+01 0.1397000D+01 0.1397000D+01 0.1397000D+01 0.3600000D+00
EXPONENTS  0.3600000D+00 0.3600000D+00 0.3600000D+00 0.3600000D+00 0.3600000D+00
EXPONENTS  0.3600000D+00 0.3600000D+00 0.3600000D+00 0.3600000D+00
MO    1     MO 0.0        OCC NO =    1.0000000  ORB. ENERGY =   -0.499948
  0.39212464D-01  0.72350176D-01  0.11742218D+00  0.15419051D+00  0.12888567D+00
  0.34170366D-01  0.16824251D-03  0.57547716D-16 -0.94153740D-16  0.11223170D-04
 -0.95965150D-16  0.82523049D-17 -0.13666849D-04  0.12993338D-16  0.57256938D-16
  0.98060544D-05 -0.19768673D-16  0.60478377D-18 -0.39936948D-05  0.79193507D-06
  0.79193507D-06 -0.15838701D-05  0.22460511D-15 -0.77874121D-15  0.21607577D-15
 -0.51310042D-06 -0.51310042D-06  0.10262008D-05 -0.16058612D-15  0.18147840D-15
  0.63855520D-17  0.16863527D-06  0.16863527D-06 -0.33727055D-06  0.29435524D-16
 -0.67996987D-17 -0.18322138D-17  0.76794506D-17 -0.24595551D-16  0.56979138D-07
 -0.80081526D-18  0.25265154D-16 -0.85468707D-07 -0.22237537D-16  0.48521500D-16
 -0.85468707D-07 -0.21766706D-17  0.63952824D-18 -0.12286314D-17 -0.89436548D-08
  0.47251988D-18 -0.11872997D-17  0.13415482D-07 -0.23911046D-17  0.48731940D-17
  0.13415482D-07  0.12989491D-16 -0.11173966D-05 -0.20616873D-05 -0.33460570D-05
  0.15508344D-04 -0.35594891D-04  0.22428975D-04  0.68973995D-05  0.84165160D-16
 -0.30763195D-17 -0.61116703D-05 -0.71147449D-16  0.54935312D-16  0.32713870D-05
  0.19970006D-16 -0.60270353D-16  0.99577237D-05 -0.41585365D-17  0.11413983D-16
 -0.20000682D-04 -0.15770585D-04 -0.15770585D-04  0.31541169D-04 -0.76295794D-15
 -0.21791814D-14  0.66466517D-15  0.11061092D-04  0.11061092D-04 -0.22122183D-04
  0.15974633D-16  0.18497189D-15 -0.11707612D-15 -0.58238379D-05 -0.58238379D-05
  0.11647676D-04  0.14705206D-16 -0.80045158D-18  0.19370352D-16 -0.63125379D-17
 -0.26657011D-19  0.81828389D-05 -0.11282440D-16 -0.30699219D-16 -0.12274258D-04
  0.30220053D-16  0.30779190D-16 -0.12274258D-04  0.91675388D-17 -0.47404683D-18
  0.24415455D-18 -0.28629346D-05  0.47434538D-18  0.94362904D-18  0.42944019D-05
  0.94779512D-18 -0.16760927D-17  0.42944019D-05  0.56289609D-18
END DATA
 TOTAL ENERGY =       -0.499948402890 THE VIRIAL(-V/T)=   2.00028050
