 TITLE
GAUSSIAN              1 MOL ORBITALS    114 PRIMITIVES        2 NUCLEI
  H    1    (CENTRE  1)   0.00000000  0.00000000  0.00000000  CHARGE =  1.0
  H    2    (CENTRE  2)   0.00000000  0.00000000  2.45664396  CHARGE =  0.0
CENTRE ASSIGNMENTS    1  1  1  1  1  1  1  1  1  1  1  1  1  1  1  1  1  1  1  1
CENTRE ASSIGNMENTS    1  1  1  1  1  1  1  1  1  1  1  1  1  1  1  1  1  1  1  1
CENTRE ASSIGNMENTS    1  1  1  1  1  1  1  1  1  1  1  1  1  1  1  1  1  2  2  2
CENTRE ASSIGNMENTS    2  2  2  2  2  2  2  2  2  2  2  2  2  2  2  2  2  2  2  2
CENTRE ASSIGNMENTS    2  2  2  2  2  2  2  2  2  2  2  2  2  2  2  2  2  2  2  2
CENTRE ASSIGNMENTS    2  2  2  2  2  2  2  2  2  2  2  2  2  2
TYPE ASSIGNMENTS      1  1  1  1  1  1  1  2  3  4  2  3  4  2  3  4  2  3  4  5
TYPE ASSIGNMENTS      6  7  8  9 10  5  6  7  8  9 10  5  6  7  8  9 10 11 12 13
TYPE ASSIGNMENTS     17 14 15 18 19 16 20 11 12 13 17 14 15 18 19 16 20  1  1  1
TYPE ASSIGNMENTS      1  1  1  1  2  3  4  2  3  4  2  3  4  2  3  4  5  6  7  8
TYPE ASSIGNMENTS      9 10  5  6  7  8  9 10  5  6  7  8  9 10 11 12 13 17 14 15
TYPE ASSIGNMENTS     18 19 16 20 11 12 13 17 14 15 18 19 16 20
EXPONENTS  0.8264000D+02 0.1241000D+02 0.2824000D+01 0.7977000D+00 0.2581000D+00
EXPONENTS  0.8989000D-01 0.2363000D-01 0.2292000D+01 0.2292000D+01 0.2292000D+01
EXPONENTS  0.8380000D+00 0.8380000D+00 0.8380000D+00 0.2920000D+00 0.2920000D+00
EXPONENTS  0.2920000D+00 0.8480000D-01 0.8480000D-01 0.8480000D-01 0.2062000D+01
EXPONENTS  0.2062000D+01 0.2062000D+01 0.2062000D+01 0.2062000D+01 0.2062000D+01
EXPONENTS  0.6620000D+00 0.6620000D+00 0.6620000D+00 0.6620000D+00 0.6620000D+00
EXPONENTS  0.6620000D+00 0.1900000D+00 0.1900000D+00 0.1900000D+00 0.1900000D+00
EXPONENTS  0.1900000D+00 0.1900000D+00 0.1397000D+01 0.1397000D+01 0.1397000D+01
EXPONENTS  0.1397000D+01 0.1397000D+01 0.1397000D+01 0.1397000D+01 0.1397000D+01
EXPONENTS  0.1397000D+01 0.1397000D+01 0.3600000D+00 0.3600000D+00 0.3600000D+00
EXPONENTS  0.3600000D+00 0.3600000D+00 0.3600000D+00 0.3600000D+00 0.3600000D+00
EXPONENTS  0.3600000D+00 0.3600000D+00 0.8264000D+02 0.1241000D+02 0.2824000D+01
EXPONENTS  0.7977000D+00 0.2581000D+00 0.8989000D-01 0.2363000D-01 0.2292000D+01
EXPONENTS  0.2292000D+01 0.2292000D+01 0.8380000D+00 0.8380000D+00 0.8380000D+00
EXPONENTS  0.2920000D+00 0.2920000D+00 0.2920000D+00 0.8480000D-01 0.8480000D-01
EXPONENTS  0.8480000D-01 0.2062000D+01 0.2062000D+01 0.2062000D+01 0.2062000D+01
EXPONENTS  0.2062000D+01 0.2062000D+01 0.6620000D+00 0.6620000D+00 0.6620000D+00
EXPONENTS  0.6620000D+00 0.6620000D+00 0.6620000D+00 0.1900000D+00 0.1900000D+00
EXPONENTS  0.1900000D+00 0.1900000D+00 0.1900000D+00 0.1900000D+00 0.1397000D+01
EXPONENTS  0.1397000D+01 0.1397000D+01 0.1397000D+01 0.1397000D+01 0.1397000D+01
EXPONENTS  0.1397000D+01 0.1397000D+01 0.1397000D+01 0.1397000D+01 0.3600000D+00
EXPONENTS  0.3600000D+00 0.3600000D+00 0.3600000D+00 0.3600000D+00 0.3600000D+00
EXPONENTS  0.3600000D+00 0.3600000D+00 0.3600000D+00 0.3600000D+00
MO    1     MO 0.0        OCC NO =    1.0000000  ORB. ENERGY =   -0.499950
  0.39199635D-01  0.72326506D-01  0.11738376D+00  0.15426109D+00  0.12969557D+00
  0.37933631D-01  0.29561071D-03 -0.65560120D-15  0.10521317D-15  0.27718906D-04
  0.51490175D-15  0.50669745D-15 -0.33777022D-04 -0.77192002D-15 -0.14699334D-14
  0.74514436D-03 -0.10334964D-15 -0.29601126D-15  0.78541633D-03 -0.45860885D-04
 -0.45860885D-04  0.91721770D-04 -0.36594801D-15 -0.91945831D-16  0.11363333D-14
 -0.14022513D-04 -0.14022513D-04  0.28045027D-04  0.96214334D-16 -0.22846959D-15
 -0.99849439D-15 -0.32969286D-04 -0.32969286D-04  0.65938572D-04 -0.42369049D-16
 -0.29936163D-15 -0.66207451D-15 -0.10805698D-15  0.93454242D-16  0.58671612D-04
 -0.82880549D-16  0.19437864D-15 -0.88007418D-04  0.40705148D-15 -0.47474136D-15
 -0.88007418D-04  0.29139620D-16  0.37368850D-16  0.11282243D-15 -0.30008150D-04
  0.47324306D-16  0.10716571D-15  0.45012225D-04 -0.15943086D-15 -0.44563301D-15
  0.45012225D-04 -0.81142281D-16  0.10759503D-04  0.19852156D-04  0.32219458D-04
 -0.18752939D-03  0.35838063D-03 -0.41722980D-02 -0.81501646D-04  0.12158174D-14
 -0.38090641D-15 -0.18666192D-03 -0.66630836D-15 -0.53773715D-15 -0.54354556D-03
  0.58909958D-15  0.14151062D-14  0.10860562D-02  0.11481067D-15  0.29756009D-15
  0.87686100D-03 -0.16239215D-03 -0.16239215D-03  0.32478430D-03  0.11059952D-15
  0.82188859D-16  0.68469261D-15 -0.41063338D-04 -0.41063338D-04  0.82126675D-04
 -0.20199560D-17 -0.19327348D-15 -0.91225051D-15  0.14018358D-03  0.14018358D-03
 -0.28036717D-03  0.19981340D-16 -0.30962507D-15 -0.68303206D-15  0.10546205D-15
 -0.83154538D-16  0.33462030D-03  0.19995763D-15 -0.33248224D-16 -0.50193045D-03
 -0.51634378D-15  0.28271184D-15 -0.50193045D-03  0.80745290D-16 -0.48013240D-16
 -0.11745723D-15  0.20445619D-04 -0.53644121D-16 -0.11097432D-15 -0.30668429D-04
  0.19768384D-15  0.46334599D-15 -0.30668429D-04 -0.90282619D-16
END DATA
 TOTAL ENERGY =       -0.499950450443 THE VIRIAL(-V/T)=   2.00026776
