 TITLE
GAUSSIAN              1 MOL ORBITALS    114 PRIMITIVES        2 NUCLEI
  H    1    (CENTRE  1)   0.00000000  0.00000000  0.00000000  CHARGE =  1.0
  H    2    (CENTRE  2)   0.00000000  0.00000000  7.55890450  CHARGE =  0.0
CENTRE ASSIGNMENTS    1  1  1  1  1  1  1  1  1  1  1  1  1  1  1  1  1  1  1  1
CENTRE ASSIGNMENTS    1  1  1  1  1  1  1  1  1  1  1  1  1  1  1  1  1  1  1  1
CENTRE ASSIGNMENTS    1  1  1  1  1  1  1  1  1  1  1  1  1  1  1  1  1  2  2  2
CENTRE ASSIGNMENTS    2  2  2  2  2  2  2  2  2  2  2  2  2  2  2  2  2  2  2  2
CENTRE ASSIGNMENTS    2  2  2  2  2  2  2  2  2  2  2  2  2  2  2  2  2  2  2  2
CENTRE ASSIGNMENTS    2  2  2  2  2  2  2  2  2  2  2  2  2  2
TYPE ASSIGNMENTS      1  1  1  1  1  1  1  2  3  4  2  3  4  2  3  4  2  3  4  5
TYPE ASSIGNMENTS      6  7  8  9 10  5  6  7  8  9 10  5  6  7  8  9 10 11 12 13
TYPE ASSIGNMENTS     17 14 15 18 19 16 20 11 12 13 17 14 15 18 19 16 20  1  1  1
TYPE ASSIGNMENTS      1  1  1  1  2  3  4  2  3  4  2  3  4  2  3  4  5  6  7  8
TYPE ASSIGNMENTS      9 10  5  6  7  8  9 10  5  6  7  8  9 10 11 12 13 17 14 15
TYPE ASSIGNMENTS     18 19 16 20 11 12 13 17 14 15 18 19 16 20
EXPONENTS  0.8264000D+02 0.1241000D+02 0.2824000D+01 0.7977000D+00 0.2581000D+00
EXPONENTS  0.8989000D-01 0.2363000D-01 0.2292000D+01 0.2292000D+01 0.2292000D+01
EXPONENTS  0.8380000D+00 0.8380000D+00 0.8380000D+00 0.2920000D+00 0.2920000D+00
EXPONENTS  0.2920000D+00 0.8480000D-01 0.8480000D-01 0.8480000D-01 0.2062000D+01
EXPONENTS  0.2062000D+01 0.2062000D+01 0.2062000D+01 0.2062000D+01 0.2062000D+01
EXPONENTS  0.6620000D+00 0.6620000D+00 0.6620000D+00 0.6620000D+00 0.6620000D+00
EXPONENTS  0.6620000D+00 0.1900000D+00 0.1900000D+00 0.1900000D+00 0.1900000D+00
EXPONENTS  0.1900000D+00 0.1900000D+00 0.1397000D+01 0.1397000D+01 0.1397000D+01
EXPONENTS  0.1397000D+01 0.1397000D+01 0.1397000D+01 0.1397000D+01 0.1397000D+01
EXPONENTS  0.1397000D+01 0.1397000D+01 0.3600000D+00 0.3600000D+00 0.3600000D+00
EXPONENTS  0.3600000D+00 0.3600000D+00 0.3600000D+00 0.3600000D+00 0.3600000D+00
EXPONENTS  0.3600000D+00 0.3600000D+00 0.8264000D+02 0.1241000D+02 0.2824000D+01
EXPONENTS  0.7977000D+00 0.2581000D+00 0.8989000D-01 0.2363000D-01 0.2292000D+01
EXPONENTS  0.2292000D+01 0.2292000D+01 0.8380000D+00 0.8380000D+00 0.8380000D+00
EXPONENTS  0.2920000D+00 0.2920000D+00 0.2920000D+00 0.8480000D-01 0.8480000D-01
EXPONENTS  0.8480000D-01 0.2062000D+01 0.2062000D+01 0.2062000D+01 0.2062000D+01
EXPONENTS  0.2062000D+01 0.2062000D+01 0.6620000D+00 0.6620000D+00 0.6620000D+00
EXPONENTS  0.6620000D+00 0.6620000D+00 0.6620000D+00 0.1900000D+00 0.1900000D+00
EXPONENTS  0.1900000D+00 0.1900000D+00 0.1900000D+00 0.1900000D+00 0.1397000D+01
EXPONENTS  0.1397000D+01 0.1397000D+01 0.1397000D+01 0.1397000D+01 0.1397000D+01
EXPONENTS  0.1397000D+01 0.1397000D+01 0.1397000D+01 0.1397000D+01 0.3600000D+00
EXPONENTS  0.3600000D+00 0.3600000D+00 0.3600000D+00 0.3600000D+00 0.3600000D+00
EXPONENTS  0.3600000D+00 0.3600000D+00 0.3600000D+00 0.3600000D+00
MO    1     MO 0.0        OCC NO =    1.0000000  ORB. ENERGY =   -0.499949
  0.39210312D-01  0.72346206D-01  0.11741573D+00  0.15421381D+00  0.12885525D+00
  0.34178845D-01  0.17463603D-03  0.46667784D-16  0.95700580D-16 -0.49837363D-04
 -0.60776781D-16  0.54887145D-17  0.61353345D-04  0.55784577D-16  0.37345863D-18
 -0.45806825D-04  0.17774975D-17  0.48858186D-17  0.18464397D-04 -0.15835859D-04
 -0.15835859D-04  0.31671719D-04 -0.30320483D-16 -0.97392779D-16  0.20399172D-15
  0.10151738D-04  0.10151738D-04 -0.20303475D-04  0.37610542D-16  0.47956311D-16
 -0.62320190D-16 -0.36110822D-05 -0.36110822D-05  0.72221645D-05 -0.16553498D-16
 -0.14321692D-16  0.98246207D-17 -0.29991061D-16  0.72474180D-16 -0.42176936D-05
 -0.24787064D-16 -0.14546887D-15  0.63265404D-05  0.11476025D-15 -0.71953665D-16
  0.63265404D-05 -0.10880305D-15  0.11634821D-17 -0.28653334D-17  0.11930972D-05
  0.38667032D-18  0.10785577D-16 -0.17896459D-05 -0.38771167D-17 -0.21895769D-17
 -0.17896459D-05  0.13121800D-17  0.18551037D-05  0.34228168D-05  0.55551295D-05
 -0.32685608D-04  0.95321669D-04 -0.30054820D-04  0.79162753D-05  0.74443500D-15
  0.14805050D-15  0.50255767D-04 -0.24934699D-15 -0.12000388D-15 -0.50228064D-04
  0.47892443D-16  0.46131304D-16 -0.10193233D-04  0.25523998D-17 -0.91500863D-17
  0.24981293D-04  0.57301239D-04  0.57301239D-04 -0.11460248D-03  0.11459857D-14
 -0.98826255D-16 -0.28819791D-15 -0.42602790D-04 -0.42602790D-04  0.85205579D-04
 -0.89918193D-16  0.43924152D-17 -0.72275209D-16  0.24111483D-04  0.24111483D-04
 -0.48222966D-04  0.98713456D-17  0.12492363D-16  0.14726400D-16 -0.10877693D-16
 -0.50860799D-17 -0.64127471D-04 -0.20348984D-17 -0.44473778D-16  0.96191207D-04
  0.34667977D-16  0.59732018D-16  0.96191207D-04  0.38837157D-16  0.78059176D-18
  0.41575524D-18  0.23464899D-04 -0.24377229D-18  0.20609408D-17 -0.35197348D-04
 -0.20980030D-17 -0.33082066D-17 -0.35197348D-04 -0.18085191D-17
END DATA
 TOTAL ENERGY =       -0.499948670381 THE VIRIAL(-V/T)=   2.00027820
