 TITLE
GAUSSIAN              1 MOL ORBITALS    114 PRIMITIVES        2 NUCLEI
  H    1    (CENTRE  1)   0.00000000  0.00000000  0.00000000  CHARGE =  1.0
  H    2    (CENTRE  2)   0.00000000  0.00000000  2.64561657  CHARGE =  0.0
CENTRE ASSIGNMENTS    1  1  1  1  1  1  1  1  1  1  1  1  1  1  1  1  1  1  1  1
CENTRE ASSIGNMENTS    1  1  1  1  1  1  1  1  1  1  1  1  1  1  1  1  1  1  1  1
CENTRE ASSIGNMENTS    1  1  1  1  1  1  1  1  1  1  1  1  1  1  1  1  1  2  2  2
CENTRE ASSIGNMENTS    2  2  2  2  2  2  2  2  2  2  2  2  2  2  2  2  2  2  2  2
CENTRE ASSIGNMENTS    2  2  2  2  2  2  2  2  2  2  2  2  2  2  2  2  2  2  2  2
CENTRE ASSIGNMENTS    2  2  2  2  2  2  2  2  2  2  2  2  2  2
TYPE ASSIGNMENTS      1  1  1  1  1  1  1  2  3  4  2  3  4  2  3  4  2  3  4  5
TYPE ASSIGNMENTS      6  7  8  9 10  5  6  7  8  9 10  5  6  7  8  9 10 11 12 13
TYPE ASSIGNMENTS     17 14 15 18 19 16 20 11 12 13 17 14 15 18 19 16 20  1  1  1
TYPE ASSIGNMENTS      1  1  1  1  2  3  4  2  3  4  2  3  4  2  3  4  5  6  7  8
TYPE ASSIGNMENTS      9 10  5  6  7  8  9 10  5  6  7  8  9 10 11 12 13 17 14 15
TYPE ASSIGNMENTS     18 19 16 20 11 12 13 17 14 15 18 19 16 20
EXPONENTS  0.8264000D+02 0.1241000D+02 0.2824000D+01 0.7977000D+00 0.2581000D+00
EXPONENTS  0.8989000D-01 0.2363000D-01 0.2292000D+01 0.2292000D+01 0.2292000D+01
EXPONENTS  0.8380000D+00 0.8380000D+00 0.8380000D+00 0.2920000D+00 0.2920000D+00
EXPONENTS  0.2920000D+00 0.8480000D-01 0.8480000D-01 0.8480000D-01 0.2062000D+01
EXPONENTS  0.2062000D+01 0.2062000D+01 0.2062000D+01 0.2062000D+01 0.2062000D+01
EXPONENTS  0.6620000D+00 0.6620000D+00 0.6620000D+00 0.6620000D+00 0.6620000D+00
EXPONENTS  0.6620000D+00 0.1900000D+00 0.1900000D+00 0.1900000D+00 0.1900000D+00
EXPONENTS  0.1900000D+00 0.1900000D+00 0.1397000D+01 0.1397000D+01 0.1397000D+01
EXPONENTS  0.1397000D+01 0.1397000D+01 0.1397000D+01 0.1397000D+01 0.1397000D+01
EXPONENTS  0.1397000D+01 0.1397000D+01 0.3600000D+00 0.3600000D+00 0.3600000D+00
EXPONENTS  0.3600000D+00 0.3600000D+00 0.3600000D+00 0.3600000D+00 0.3600000D+00
EXPONENTS  0.3600000D+00 0.3600000D+00 0.8264000D+02 0.1241000D+02 0.2824000D+01
EXPONENTS  0.7977000D+00 0.2581000D+00 0.8989000D-01 0.2363000D-01 0.2292000D+01
EXPONENTS  0.2292000D+01 0.2292000D+01 0.8380000D+00 0.8380000D+00 0.8380000D+00
EXPONENTS  0.2920000D+00 0.2920000D+00 0.2920000D+00 0.8480000D-01 0.8480000D-01
EXPONENTS  0.8480000D-01 0.2062000D+01 0.2062000D+01 0.2062000D+01 0.2062000D+01
EXPONENTS  0.2062000D+01 0.2062000D+01 0.6620000D+00 0.6620000D+00 0.6620000D+00
EXPONENTS  0.6620000D+00 0.6620000D+00 0.6620000D+00 0.1900000D+00 0.1900000D+00
EXPONENTS  0.1900000D+00 0.1900000D+00 0.1900000D+00 0.1900000D+00 0.1397000D+01
EXPONENTS  0.1397000D+01 0.1397000D+01 0.1397000D+01 0.1397000D+01 0.1397000D+01
EXPONENTS  0.1397000D+01 0.1397000D+01 0.1397000D+01 0.1397000D+01 0.3600000D+00
EXPONENTS  0.3600000D+00 0.3600000D+00 0.3600000D+00 0.3600000D+00 0.3600000D+00
EXPONENTS  0.3600000D+00 0.3600000D+00 0.3600000D+00 0.3600000D+00
MO    1     MO 0.0        OCC NO =    1.0000000  ORB. ENERGY =   -0.499950
  0.39199646D-01  0.72326526D-01  0.11738380D+00  0.15431705D+00  0.12922800D+00
  0.37171168D-01  0.27724096D-03  0.61485588D-15 -0.19127230D-15  0.10164853D-03
 -0.59622552D-15  0.23338635D-15 -0.80170336D-04  0.65236305D-15  0.82165577D-16
  0.48620843D-03  0.18090600D-15  0.60623372D-16  0.68606260D-03 -0.87573658D-04
 -0.87573658D-04  0.17514732D-03 -0.85500969D-15 -0.73525248D-15 -0.42222460D-15
  0.36651301D-04  0.36651301D-04 -0.73302601D-04  0.85500356D-16  0.42271043D-15
  0.10745692D-15 -0.31580513D-04 -0.31580513D-04  0.63161025D-04  0.88119734D-17
  0.32599634D-15  0.13470748D-15  0.96919004D-16  0.97647791D-16 -0.69850483D-05
 -0.15548697D-15  0.84832453D-16  0.10477572D-04 -0.13527005D-15 -0.37777583D-15
  0.10477572D-04 -0.12096412D-16 -0.60034339D-16 -0.33994028D-16 -0.27137298D-04
 -0.34013901D-16 -0.47192551D-16  0.40705947D-04  0.21411692D-15  0.14917463D-15
  0.40705947D-04  0.79636682D-16 -0.39139500D-05 -0.72215551D-05 -0.11720369D-04
 -0.25352033D-03  0.65783194D-03 -0.33700683D-02 -0.63819063D-04 -0.14242657D-16
 -0.46301617D-15 -0.13453790D-04  0.12728304D-15  0.27183700D-15 -0.34527392D-03
 -0.40720625D-15 -0.29870942D-15  0.63130257D-03 -0.19051573D-15 -0.33873834D-16
  0.75903185D-03 -0.29521021D-03 -0.29521021D-03  0.59042042D-03  0.21442240D-14
  0.11619955D-15  0.18870546D-16 -0.69000532D-04 -0.69000532D-04  0.13800106D-03
 -0.19149832D-15  0.23561106D-15  0.15218503D-15  0.11771454D-03  0.11771454D-03
 -0.23542908D-03 -0.11255180D-16  0.35066995D-15  0.12042793D-15 -0.27935026D-16
  0.11898375D-17 -0.12256827D-03 -0.21138716D-16 -0.13523746D-16  0.18385241D-03
  0.10494379D-15  0.99542332D-17  0.18385241D-03 -0.32406583D-16  0.61192044D-16
  0.18747719D-16  0.27429986D-04  0.61252823D-16  0.18785618D-16 -0.41144979D-04
 -0.24482895D-15 -0.75028774D-16 -0.41144979D-04  0.79242259D-16
END DATA
 TOTAL ENERGY =       -0.499950220108 THE VIRIAL(-V/T)=   2.00026824
