 TITLE
GAUSSIAN              1 MOL ORBITALS    114 PRIMITIVES        2 NUCLEI
  H    1    (CENTRE  1)   0.00000000  0.00000000  0.00000000  CHARGE =  1.0
  H    2    (CENTRE  2)   0.00000000  0.00000000  2.07869874  CHARGE =  0.0
CENTRE ASSIGNMENTS    1  1  1  1  1  1  1  1  1  1  1  1  1  1  1  1  1  1  1  1
CENTRE ASSIGNMENTS    1  1  1  1  1  1  1  1  1  1  1  1  1  1  1  1  1  1  1  1
CENTRE ASSIGNMENTS    1  1  1  1  1  1  1  1  1  1  1  1  1  1  1  1  1  2  2  2
CENTRE ASSIGNMENTS    2  2  2  2  2  2  2  2  2  2  2  2  2  2  2  2  2  2  2  2
CENTRE ASSIGNMENTS    2  2  2  2  2  2  2  2  2  2  2  2  2  2  2  2  2  2  2  2
CENTRE ASSIGNMENTS    2  2  2  2  2  2  2  2  2  2  2  2  2  2
TYPE ASSIGNMENTS      1  1  1  1  1  1  1  2  3  4  2  3  4  2  3  4  2  3  4  5
TYPE ASSIGNMENTS      6  7  8  9 10  5  6  7  8  9 10  5  6  7  8  9 10 11 12 13
TYPE ASSIGNMENTS     17 14 15 18 19 16 20 11 12 13 17 14 15 18 19 16 20  1  1  1
TYPE ASSIGNMENTS      1  1  1  1  2  3  4  2  3  4  2  3  4  2  3  4  5  6  7  8
TYPE ASSIGNMENTS      9 10  5  6  7  8  9 10  5  6  7  8  9 10 11 12 13 17 14 15
TYPE ASSIGNMENTS     18 19 16 20 11 12 13 17 14 15 18 19 16 20
EXPONENTS  0.8264000D+02 0.1241000D+02 0.2824000D+01 0.7977000D+00 0.2581000D+00
EXPONENTS  0.8989000D-01 0.2363000D-01 0.2292000D+01 0.2292000D+01 0.2292000D+01
EXPONENTS  0.8380000D+00 0.8380000D+00 0.8380000D+00 0.2920000D+00 0.2920000D+00
EXPONENTS  0.2920000D+00 0.8480000D-01 0.8480000D-01 0.8480000D-01 0.2062000D+01
EXPONENTS  0.2062000D+01 0.2062000D+01 0.2062000D+01 0.2062000D+01 0.2062000D+01
EXPONENTS  0.6620000D+00 0.6620000D+00 0.6620000D+00 0.6620000D+00 0.6620000D+00
EXPONENTS  0.6620000D+00 0.1900000D+00 0.1900000D+00 0.1900000D+00 0.1900000D+00
EXPONENTS  0.1900000D+00 0.1900000D+00 0.1397000D+01 0.1397000D+01 0.1397000D+01
EXPONENTS  0.1397000D+01 0.1397000D+01 0.1397000D+01 0.1397000D+01 0.1397000D+01
EXPONENTS  0.1397000D+01 0.1397000D+01 0.3600000D+00 0.3600000D+00 0.3600000D+00
EXPONENTS  0.3600000D+00 0.3600000D+00 0.3600000D+00 0.3600000D+00 0.3600000D+00
EXPONENTS  0.3600000D+00 0.3600000D+00 0.8264000D+02 0.1241000D+02 0.2824000D+01
EXPONENTS  0.7977000D+00 0.2581000D+00 0.8989000D-01 0.2363000D-01 0.2292000D+01
EXPONENTS  0.2292000D+01 0.2292000D+01 0.8380000D+00 0.8380000D+00 0.8380000D+00
EXPONENTS  0.2920000D+00 0.2920000D+00 0.2920000D+00 0.8480000D-01 0.8480000D-01
EXPONENTS  0.8480000D-01 0.2062000D+01 0.2062000D+01 0.2062000D+01 0.2062000D+01
EXPONENTS  0.2062000D+01 0.2062000D+01 0.6620000D+00 0.6620000D+00 0.6620000D+00
EXPONENTS  0.6620000D+00 0.6620000D+00 0.6620000D+00 0.1900000D+00 0.1900000D+00
EXPONENTS  0.1900000D+00 0.1900000D+00 0.1900000D+00 0.1900000D+00 0.1397000D+01
EXPONENTS  0.1397000D+01 0.1397000D+01 0.1397000D+01 0.1397000D+01 0.1397000D+01
EXPONENTS  0.1397000D+01 0.1397000D+01 0.1397000D+01 0.1397000D+01 0.3600000D+00
EXPONENTS  0.3600000D+00 0.3600000D+00 0.3600000D+00 0.3600000D+00 0.3600000D+00
EXPONENTS  0.3600000D+00 0.3600000D+00 0.3600000D+00 0.3600000D+00
MO    1     MO 0.0        OCC NO =    1.0000000  ORB. ENERGY =   -0.499951
  0.39184885D-01  0.72299291D-01  0.11733959D+00  0.15435668D+00  0.13131081D+00
  0.39693310D-01  0.33366130D-03 -0.61604316D-15 -0.63123195D-15 -0.17000413D-03
  0.30677862D-15  0.62991258D-15  0.34594662D-03 -0.11612045D-15 -0.18272306D-14
  0.13985469D-02  0.32061539D-16 -0.44937187D-15  0.94502084D-03 -0.76086355D-04
 -0.76086355D-04  0.15217271D-03  0.11654072D-16 -0.46571075D-16  0.74387736D-15
 -0.91516450D-04 -0.91516450D-04  0.18303290D-03 -0.29169656D-16  0.27711612D-15
 -0.11402404D-14 -0.31464118D-04 -0.31464118D-04  0.62928237D-04 -0.17226902D-16
 -0.38026492D-16 -0.68740217D-15 -0.22340731D-15  0.14415779D-15  0.20698836D-03
 -0.20755010D-15 -0.12784670D-15 -0.31048254D-03  0.87777202D-15 -0.30462667D-15
 -0.31048254D-03 -0.20806459D-15  0.21937368D-17  0.75756029D-16 -0.49168641D-04
  0.30463685D-16  0.13785689D-15  0.73752961D-04 -0.37044896D-16 -0.36512498D-15
  0.73752961D-04 -0.52938080D-16  0.57603126D-04  0.10628244D-03  0.17249323D-03
  0.59419570D-05 -0.97964749D-03 -0.60052068D-02 -0.11894894D-03  0.97824972D-15
  0.44713183D-16  0.46685384D-03 -0.39856260D-15 -0.35967622D-15 -0.10322827D-02
 -0.14598753D-16  0.17462741D-14  0.23714267D-02 -0.92444886D-16  0.44200045D-15
  0.10854739D-02  0.45628205D-03  0.45628205D-03 -0.91256411D-03 -0.84102278D-16
 -0.25132256D-15  0.62306778D-15  0.75682038D-04  0.75682038D-04 -0.15136408D-03
  0.94445612D-16  0.23565825D-15 -0.11200652D-14  0.18068728D-03  0.18068728D-03
 -0.36137456D-03  0.18090348D-17  0.54111403D-16 -0.75459117D-15  0.33231930D-15
 -0.25242522D-16  0.70951700D-03  0.23426730D-15  0.12106570D-16 -0.10642755D-02
 -0.12312252D-14  0.63620996D-16 -0.10642755D-02  0.23691019D-16  0.10216060D-16
 -0.99296136D-16  0.22037724D-04  0.88008479D-17 -0.12308540D-15 -0.33056586D-04
 -0.39449029D-16  0.42097380D-15 -0.33056586D-04 -0.53561739D-16
END DATA
 TOTAL ENERGY =       -0.499950914027 THE VIRIAL(-V/T)=   2.00027129
