 TITLE
GAUSSIAN              1 MOL ORBITALS    114 PRIMITIVES        2 NUCLEI
  H    1    (CENTRE  1)   0.00000000  0.00000000  0.00000000  CHARGE =  1.0
  H    2    (CENTRE  2)   0.00000000  0.00000000 11.33835675  CHARGE =  0.0
CENTRE ASSIGNMENTS    1  1  1  1  1  1  1  1  1  1  1  1  1  1  1  1  1  1  1  1
CENTRE ASSIGNMENTS    1  1  1  1  1  1  1  1  1  1  1  1  1  1  1  1  1  1  1  1
CENTRE ASSIGNMENTS    1  1  1  1  1  1  1  1  1  1  1  1  1  1  1  1  1  2  2  2
CENTRE ASSIGNMENTS    2  2  2  2  2  2  2  2  2  2  2  2  2  2  2  2  2  2  2  2
CENTRE ASSIGNMENTS    2  2  2  2  2  2  2  2  2  2  2  2  2  2  2  2  2  2  2  2
CENTRE ASSIGNMENTS    2  2  2  2  2  2  2  2  2  2  2  2  2  2
TYPE ASSIGNMENTS      1  1  1  1  1  1  1  2  3  4  2  3  4  2  3  4  2  3  4  5
TYPE ASSIGNMENTS      6  7  8  9 10  5  6  7  8  9 10  5  6  7  8  9 10 11 12 13
TYPE ASSIGNMENTS     17 14 15 18 19 16 20 11 12 13 17 14 15 18 19 16 20  1  1  1
TYPE ASSIGNMENTS      1  1  1  1  2  3  4  2  3  4  2  3  4  2  3  4  5  6  7  8
TYPE ASSIGNMENTS      9 10  5  6  7  8  9 10  5  6  7  8  9 10 11 12 13 17 14 15
TYPE ASSIGNMENTS     18 19 16 20 11 12 13 17 14 15 18 19 16 20
EXPONENTS  0.8264000D+02 0.1241000D+02 0.2824000D+01 0.7977000D+00 0.2581000D+00
EXPONENTS  0.8989000D-01 0.2363000D-01 0.2292000D+01 0.2292000D+01 0.2292000D+01
EXPONENTS  0.8380000D+00 0.8380000D+00 0.8380000D+00 0.2920000D+00 0.2920000D+00
EXPONENTS  0.2920000D+00 0.8480000D-01 0.8480000D-01 0.8480000D-01 0.2062000D+01
EXPONENTS  0.2062000D+01 0.2062000D+01 0.2062000D+01 0.2062000D+01 0.2062000D+01
EXPONENTS  0.6620000D+00 0.6620000D+00 0.6620000D+00 0.6620000D+00 0.6620000D+00
EXPONENTS  0.6620000D+00 0.1900000D+00 0.1900000D+00 0.1900000D+00 0.1900000D+00
EXPONENTS  0.1900000D+00 0.1900000D+00 0.1397000D+01 0.1397000D+01 0.1397000D+01
EXPONENTS  0.1397000D+01 0.1397000D+01 0.1397000D+01 0.1397000D+01 0.1397000D+01
EXPONENTS  0.1397000D+01 0.1397000D+01 0.3600000D+00 0.3600000D+00 0.3600000D+00
EXPONENTS  0.3600000D+00 0.3600000D+00 0.3600000D+00 0.3600000D+00 0.3600000D+00
EXPONENTS  0.3600000D+00 0.3600000D+00 0.8264000D+02 0.1241000D+02 0.2824000D+01
EXPONENTS  0.7977000D+00 0.2581000D+00 0.8989000D-01 0.2363000D-01 0.2292000D+01
EXPONENTS  0.2292000D+01 0.2292000D+01 0.8380000D+00 0.8380000D+00 0.8380000D+00
EXPONENTS  0.2920000D+00 0.2920000D+00 0.2920000D+00 0.8480000D-01 0.8480000D-01
EXPONENTS  0.8480000D-01 0.2062000D+01 0.2062000D+01 0.2062000D+01 0.2062000D+01
EXPONENTS  0.2062000D+01 0.2062000D+01 0.6620000D+00 0.6620000D+00 0.6620000D+00
EXPONENTS  0.6620000D+00 0.6620000D+00 0.6620000D+00 0.1900000D+00 0.1900000D+00
EXPONENTS  0.1900000D+00 0.1900000D+00 0.1900000D+00 0.1900000D+00 0.1397000D+01
EXPONENTS  0.1397000D+01 0.1397000D+01 0.1397000D+01 0.1397000D+01 0.1397000D+01
EXPONENTS  0.1397000D+01 0.1397000D+01 0.1397000D+01 0.1397000D+01 0.3600000D+00
EXPONENTS  0.3600000D+00 0.3600000D+00 0.3600000D+00 0.3600000D+00 0.3600000D+00
EXPONENTS  0.3600000D+00 0.3600000D+00 0.3600000D+00 0.3600000D+00
MO    1     MO 0.0        OCC NO =    1.0000000  ORB. ENERGY =   -0.499948
  0.39212711D-01  0.72350632D-01  0.11742292D+00  0.15418779D+00  0.12889097D+00
  0.34164425D-01  0.17116757D-03  0.14418323D-15 -0.19421406D-15  0.50892449D-05
 -0.15702631D-15  0.14705941D-15 -0.62061401D-05  0.64819853D-16 -0.85683681D-16
  0.44953980D-05 -0.11793100D-17  0.13407128D-16 -0.19214159D-05  0.33053348D-06
  0.33053348D-06 -0.66106696D-06  0.11120610D-15  0.22508992D-15  0.14021693D-17
 -0.21724880D-06 -0.21724880D-06  0.43449760D-06 -0.79766051D-16  0.59041006D-16
  0.36329521D-16  0.77201014D-07  0.77201014D-07 -0.15440203D-06  0.24324941D-16
 -0.18263205D-16  0.37344645D-17 -0.25779659D-16 -0.14989362D-16  0.15774559D-07
  0.50268385D-16 -0.73846728D-17 -0.23661839D-07  0.27070592D-16  0.52352759D-16
 -0.23661839D-07 -0.76551399D-16 -0.92096443D-18  0.21174980D-17 -0.24151462D-08
  0.97343784D-18 -0.17462343D-17  0.36227193D-08  0.17894555D-17 -0.46062596D-17
  0.36227193D-08  0.59517038D-17 -0.14830923D-05 -0.27364255D-05 -0.44411370D-05
  0.15829753D-04 -0.19206008D-04 -0.29072459D-05  0.94637732D-05 -0.16283026D-15
 -0.27527956D-16  0.51247863D-04  0.68451824D-16  0.62427114D-16 -0.63416598D-04
 -0.15158141D-16 -0.24078729D-16  0.48510251D-04  0.27862261D-17  0.22664924D-17
 -0.20140667D-04 -0.20406997D-04 -0.20406997D-04  0.40813994D-04  0.14391626D-14
  0.40007685D-15 -0.24116731D-14  0.13030799D-04  0.13030799D-04 -0.26061599D-04
 -0.91065507D-16 -0.11136673D-15  0.20691055D-15 -0.47228733D-05 -0.47228733D-05
  0.94457467D-05  0.29985304D-17  0.10197040D-16 -0.80419445D-17  0.47164946D-17
  0.23962369D-18  0.80034579D-05 -0.16459536D-17  0.12713614D-18 -0.12005187D-04
 -0.12503530D-16 -0.84600723D-18 -0.12005187D-04 -0.20681388D-17 -0.69306244D-19
 -0.15071117D-18 -0.23809740D-05  0.61589781D-18 -0.31807848D-18  0.35714609D-05
 -0.40797908D-18  0.77021199D-18  0.35714609D-05  0.28751027D-18
END DATA
 TOTAL ENERGY =       -0.499948378319 THE VIRIAL(-V/T)=   2.00027938
