 TITLE
GAUSSIAN              1 MOL ORBITALS    114 PRIMITIVES        2 NUCLEI
  H    1    (CENTRE  1)   0.00000000  0.00000000  0.00000000  CHARGE =  1.0
  H    2    (CENTRE  2)   0.00000000  0.00000000  6.42506882  CHARGE =  0.0
CENTRE ASSIGNMENTS    1  1  1  1  1  1  1  1  1  1  1  1  1  1  1  1  1  1  1  1
CENTRE ASSIGNMENTS    1  1  1  1  1  1  1  1  1  1  1  1  1  1  1  1  1  1  1  1
CENTRE ASSIGNMENTS    1  1  1  1  1  1  1  1  1  1  1  1  1  1  1  1  1  2  2  2
CENTRE ASSIGNMENTS    2  2  2  2  2  2  2  2  2  2  2  2  2  2  2  2  2  2  2  2
CENTRE ASSIGNMENTS    2  2  2  2  2  2  2  2  2  2  2  2  2  2  2  2  2  2  2  2
CENTRE ASSIGNMENTS    2  2  2  2  2  2  2  2  2  2  2  2  2  2
TYPE ASSIGNMENTS      1  1  1  1  1  1  1  2  3  4  2  3  4  2  3  4  2  3  4  5
TYPE ASSIGNMENTS      6  7  8  9 10  5  6  7  8  9 10  5  6  7  8  9 10 11 12 13
TYPE ASSIGNMENTS     17 14 15 18 19 16 20 11 12 13 17 14 15 18 19 16 20  1  1  1
TYPE ASSIGNMENTS      1  1  1  1  2  3  4  2  3  4  2  3  4  2  3  4  5  6  7  8
TYPE ASSIGNMENTS      9 10  5  6  7  8  9 10  5  6  7  8  9 10 11 12 13 17 14 15
TYPE ASSIGNMENTS     18 19 16 20 11 12 13 17 14 15 18 19 16 20
EXPONENTS  0.8264000D+02 0.1241000D+02 0.2824000D+01 0.7977000D+00 0.2581000D+00
EXPONENTS  0.8989000D-01 0.2363000D-01 0.2292000D+01 0.2292000D+01 0.2292000D+01
EXPONENTS  0.8380000D+00 0.8380000D+00 0.8380000D+00 0.2920000D+00 0.2920000D+00
EXPONENTS  0.2920000D+00 0.8480000D-01 0.8480000D-01 0.8480000D-01 0.2062000D+01
EXPONENTS  0.2062000D+01 0.2062000D+01 0.2062000D+01 0.2062000D+01 0.2062000D+01
EXPONENTS  0.6620000D+00 0.6620000D+00 0.6620000D+00 0.6620000D+00 0.6620000D+00
EXPONENTS  0.6620000D+00 0.1900000D+00 0.1900000D+00 0.1900000D+00 0.1900000D+00
EXPONENTS  0.1900000D+00 0.1900000D+00 0.1397000D+01 0.1397000D+01 0.1397000D+01
EXPONENTS  0.1397000D+01 0.1397000D+01 0.1397000D+01 0.1397000D+01 0.1397000D+01
EXPONENTS  0.1397000D+01 0.1397000D+01 0.3600000D+00 0.3600000D+00 0.3600000D+00
EXPONENTS  0.3600000D+00 0.3600000D+00 0.3600000D+00 0.3600000D+00 0.3600000D+00
EXPONENTS  0.3600000D+00 0.3600000D+00 0.8264000D+02 0.1241000D+02 0.2824000D+01
EXPONENTS  0.7977000D+00 0.2581000D+00 0.8989000D-01 0.2363000D-01 0.2292000D+01
EXPONENTS  0.2292000D+01 0.2292000D+01 0.8380000D+00 0.8380000D+00 0.8380000D+00
EXPONENTS  0.2920000D+00 0.2920000D+00 0.2920000D+00 0.8480000D-01 0.8480000D-01
EXPONENTS  0.8480000D-01 0.2062000D+01 0.2062000D+01 0.2062000D+01 0.2062000D+01
EXPONENTS  0.2062000D+01 0.2062000D+01 0.6620000D+00 0.6620000D+00 0.6620000D+00
EXPONENTS  0.6620000D+00 0.6620000D+00 0.6620000D+00 0.1900000D+00 0.1900000D+00
EXPONENTS  0.1900000D+00 0.1900000D+00 0.1900000D+00 0.1900000D+00 0.1397000D+01
EXPONENTS  0.1397000D+01 0.1397000D+01 0.1397000D+01 0.1397000D+01 0.1397000D+01
EXPONENTS  0.1397000D+01 0.1397000D+01 0.1397000D+01 0.1397000D+01 0.3600000D+00
EXPONENTS  0.3600000D+00 0.3600000D+00 0.3600000D+00 0.3600000D+00 0.3600000D+00
EXPONENTS  0.3600000D+00 0.3600000D+00 0.3600000D+00 0.3600000D+00
MO    1     MO 0.0        OCC NO =    1.0000000  ORB. ENERGY =   -0.499949
  0.39209191D-01  0.72344137D-01  0.11741238D+00  0.15422802D+00  0.12882643D+00
  0.34201807D-01  0.17706907D-03  0.31861778D-17 -0.12964052D-15 -0.58980305D-04
  0.23064532D-16 -0.29012295D-16  0.74148854D-04 -0.23846970D-16 -0.38857062D-16
 -0.60880673D-04 -0.32355025D-17  0.11488318D-16  0.33878237D-04 -0.26904675D-04
 -0.26904675D-04  0.53809349D-04  0.72192846D-16  0.13391878D-15  0.13168722D-15
  0.17930561D-04  0.17930561D-04 -0.35861122D-04 -0.69766136D-17 -0.32191903D-16
 -0.94500993D-17 -0.75620113D-05 -0.75620113D-05  0.15124023D-04 -0.68332645D-18
  0.10747815D-16 -0.18919037D-16 -0.16163124D-16 -0.16894737D-16 -0.11174994D-04
 -0.35832191D-16  0.83481551D-16  0.16762491D-04  0.84321562D-16 -0.32797341D-16
  0.16762491D-04 -0.66588782D-16 -0.91546581D-18  0.22371525D-17  0.36105604D-05
 -0.90576823D-18 -0.65676181D-17 -0.54158406D-05  0.36521657D-17 -0.14383949D-18
 -0.54158406D-05 -0.13083136D-16 -0.94816828D-06 -0.17494474D-05 -0.28393009D-05
  0.23012344D-04  0.10816084D-04 -0.35499001D-04  0.65766913D-05 -0.17822996D-15
  0.33601875D-15 -0.34972743D-05 -0.91990977D-17 -0.38423790D-17 -0.26610080D-04
  0.27819625D-16 -0.76327017D-17  0.75139780D-04 -0.32355376D-17 -0.38897940D-17
  0.39998050D-04 -0.16386556D-04 -0.16386556D-04  0.32773113D-04  0.59779138D-15
  0.82099396D-15  0.55744270D-15  0.13534304D-04  0.13534304D-04 -0.27068608D-04
  0.81153011D-17 -0.47636499D-16 -0.31477810D-16  0.12332541D-04  0.12332541D-04
 -0.24665081D-04 -0.29678659D-17  0.12357841D-17  0.24533284D-18 -0.11026259D-16
 -0.49091672D-17  0.10344072D-03 -0.60760850D-17 -0.24639307D-16 -0.15516107D-03
  0.39154861D-16  0.39366809D-16 -0.15516107D-03  0.87550258D-17 -0.26174782D-18
  0.12644039D-17 -0.26909607D-04  0.62492384D-18  0.31956372D-17  0.40364411D-04
  0.16031963D-18 -0.69888489D-17  0.40364411D-04  0.11962524D-16
END DATA
 TOTAL ENERGY =       -0.499948719951 THE VIRIAL(-V/T)=   2.00027715
