 TITLE
GAUSSIAN              1 MOL ORBITALS    114 PRIMITIVES        2 NUCLEI
  H    1    (CENTRE  1)   0.00000000  0.00000000  0.00000000  CHARGE =  1.0
  H    2    (CENTRE  2)   0.00000000  0.00000000  1.70075351  CHARGE =  0.0
CENTRE ASSIGNMENTS    1  1  1  1  1  1  1  1  1  1  1  1  1  1  1  1  1  1  1  1
CENTRE ASSIGNMENTS    1  1  1  1  1  1  1  1  1  1  1  1  1  1  1  1  1  1  1  1
CENTRE ASSIGNMENTS    1  1  1  1  1  1  1  1  1  1  1  1  1  1  1  1  1  2  2  2
CENTRE ASSIGNMENTS    2  2  2  2  2  2  2  2  2  2  2  2  2  2  2  2  2  2  2  2
CENTRE ASSIGNMENTS    2  2  2  2  2  2  2  2  2  2  2  2  2  2  2  2  2  2  2  2
CENTRE ASSIGNMENTS    2  2  2  2  2  2  2  2  2  2  2  2  2  2
TYPE ASSIGNMENTS      1  1  1  1  1  1  1  2  3  4  2  3  4  2  3  4  2  3  4  5
TYPE ASSIGNMENTS      6  7  8  9 10  5  6  7  8  9 10  5  6  7  8  9 10 11 12 13
TYPE ASSIGNMENTS     17 14 15 18 19 16 20 11 12 13 17 14 15 18 19 16 20  1  1  1
TYPE ASSIGNMENTS      1  1  1  1  2  3  4  2  3  4  2  3  4  2  3  4  5  6  7  8
TYPE ASSIGNMENTS      9 10  5  6  7  8  9 10  5  6  7  8  9 10 11 12 13 17 14 15
TYPE ASSIGNMENTS     18 19 16 20 11 12 13 17 14 15 18 19 16 20
EXPONENTS  0.8264000D+02 0.1241000D+02 0.2824000D+01 0.7977000D+00 0.2581000D+00
EXPONENTS  0.8989000D-01 0.2363000D-01 0.2292000D+01 0.2292000D+01 0.2292000D+01
EXPONENTS  0.8380000D+00 0.8380000D+00 0.8380000D+00 0.2920000D+00 0.2920000D+00
EXPONENTS  0.2920000D+00 0.8480000D-01 0.8480000D-01 0.8480000D-01 0.2062000D+01
EXPONENTS  0.2062000D+01 0.2062000D+01 0.2062000D+01 0.2062000D+01 0.2062000D+01
EXPONENTS  0.6620000D+00 0.6620000D+00 0.6620000D+00 0.6620000D+00 0.6620000D+00
EXPONENTS  0.6620000D+00 0.1900000D+00 0.1900000D+00 0.1900000D+00 0.1900000D+00
EXPONENTS  0.1900000D+00 0.1900000D+00 0.1397000D+01 0.1397000D+01 0.1397000D+01
EXPONENTS  0.1397000D+01 0.1397000D+01 0.1397000D+01 0.1397000D+01 0.1397000D+01
EXPONENTS  0.1397000D+01 0.1397000D+01 0.3600000D+00 0.3600000D+00 0.3600000D+00
EXPONENTS  0.3600000D+00 0.3600000D+00 0.3600000D+00 0.3600000D+00 0.3600000D+00
EXPONENTS  0.3600000D+00 0.3600000D+00 0.8264000D+02 0.1241000D+02 0.2824000D+01
EXPONENTS  0.7977000D+00 0.2581000D+00 0.8989000D-01 0.2363000D-01 0.2292000D+01
EXPONENTS  0.2292000D+01 0.2292000D+01 0.8380000D+00 0.8380000D+00 0.8380000D+00
EXPONENTS  0.2920000D+00 0.2920000D+00 0.2920000D+00 0.8480000D-01 0.8480000D-01
EXPONENTS  0.8480000D-01 0.2062000D+01 0.2062000D+01 0.2062000D+01 0.2062000D+01
EXPONENTS  0.2062000D+01 0.2062000D+01 0.6620000D+00 0.6620000D+00 0.6620000D+00
EXPONENTS  0.6620000D+00 0.6620000D+00 0.6620000D+00 0.1900000D+00 0.1900000D+00
EXPONENTS  0.1900000D+00 0.1900000D+00 0.1900000D+00 0.1900000D+00 0.1397000D+01
EXPONENTS  0.1397000D+01 0.1397000D+01 0.1397000D+01 0.1397000D+01 0.1397000D+01
EXPONENTS  0.1397000D+01 0.1397000D+01 0.1397000D+01 0.1397000D+01 0.3600000D+00
EXPONENTS  0.3600000D+00 0.3600000D+00 0.3600000D+00 0.3600000D+00 0.3600000D+00
EXPONENTS  0.3600000D+00 0.3600000D+00 0.3600000D+00 0.3600000D+00
MO    1     MO 0.0        OCC NO =    1.0000000  ORB. ENERGY =   -0.499951
  0.39204158D-01  0.72334850D-01  0.11739730D+00  0.15442696D+00  0.13338233D+00
  0.41148813D-01  0.35289095D-03 -0.35870616D-16  0.75827177D-15 -0.12316676D-03
  0.23373379D-15 -0.10275765D-14 -0.25094397D-03 -0.58984163D-15 -0.47570982D-15
  0.19083349D-02 -0.20707811D-15 -0.52617680D-16  0.97133051D-03  0.16039423D-03
  0.16039423D-03 -0.32078846D-03  0.28024106D-15 -0.11757840D-14 -0.13163859D-14
  0.90681749D-04  0.90681749D-04 -0.18136350D-03 -0.52677156D-16 -0.60674156D-16
 -0.10707123D-14 -0.29453129D-04 -0.29453129D-04  0.58906257D-04 -0.69240132D-16
 -0.47879700D-15 -0.11476228D-15  0.10730192D-15  0.63395099D-15 -0.60015801D-04
 -0.79351084D-16  0.15150547D-15  0.90023702D-04 -0.24255468D-15 -0.20533584D-14
  0.90023702D-04  0.28006689D-15  0.54875058D-16 -0.37487504D-17 -0.76895345D-04
  0.11987156D-15  0.65437817D-16  0.11534302D-03 -0.28449673D-15 -0.54191566D-16
  0.11534302D-03 -0.10629712D-15 -0.19771491D-04 -0.36480004D-04 -0.59205959D-04
  0.66809338D-03 -0.32215223D-02 -0.74530279D-02 -0.13899379D-03 -0.59582329D-16
 -0.33705516D-15  0.19240802D-02 -0.14951673D-16  0.54867173D-15 -0.21571471D-02
  0.10582252D-14  0.58472483D-15  0.36130932D-02  0.20410584D-15  0.37267973D-16
  0.10998594D-02 -0.53837531D-04 -0.53837531D-04  0.10767506D-03 -0.74424185D-15
 -0.55440763D-15 -0.12661723D-14  0.15211093D-03  0.15211093D-03 -0.30422187D-03
  0.12975790D-15 -0.27970637D-15 -0.11939438D-14  0.17786260D-03  0.17786260D-03
 -0.35572519D-03  0.65385504D-16 -0.14261100D-15 -0.10910365D-15 -0.21489300D-15
 -0.51626345D-15 -0.27254002D-03 -0.11572472D-16 -0.45444725D-15  0.40881004D-03
  0.65625148D-15  0.20032376D-14  0.40881004D-03  0.28526992D-15  0.47201926D-16
 -0.31182728D-16  0.32707544D-04  0.83843166D-17 -0.92889180D-16 -0.49061315D-04
 -0.14999010D-15  0.18643736D-15 -0.49061315D-04 -0.85899054D-16
END DATA
 TOTAL ENERGY =       -0.499950565460 THE VIRIAL(-V/T)=   2.00027777
