 TITLE
GAUSSIAN              1 MOL ORBITALS    114 PRIMITIVES        2 NUCLEI
  H    1    (CENTRE  1)   0.00000000  0.00000000  0.00000000  CHARGE =  1.0
  H    2    (CENTRE  2)   0.00000000  0.00000000  4.34637009  CHARGE =  0.0
CENTRE ASSIGNMENTS    1  1  1  1  1  1  1  1  1  1  1  1  1  1  1  1  1  1  1  1
CENTRE ASSIGNMENTS    1  1  1  1  1  1  1  1  1  1  1  1  1  1  1  1  1  1  1  1
CENTRE ASSIGNMENTS    1  1  1  1  1  1  1  1  1  1  1  1  1  1  1  1  1  2  2  2
CENTRE ASSIGNMENTS    2  2  2  2  2  2  2  2  2  2  2  2  2  2  2  2  2  2  2  2
CENTRE ASSIGNMENTS    2  2  2  2  2  2  2  2  2  2  2  2  2  2  2  2  2  2  2  2
CENTRE ASSIGNMENTS    2  2  2  2  2  2  2  2  2  2  2  2  2  2
TYPE ASSIGNMENTS      1  1  1  1  1  1  1  2  3  4  2  3  4  2  3  4  2  3  4  5
TYPE ASSIGNMENTS      6  7  8  9 10  5  6  7  8  9 10  5  6  7  8  9 10 11 12 13
TYPE ASSIGNMENTS     17 14 15 18 19 16 20 11 12 13 17 14 15 18 19 16 20  1  1  1
TYPE ASSIGNMENTS      1  1  1  1  2  3  4  2  3  4  2  3  4  2  3  4  5  6  7  8
TYPE ASSIGNMENTS      9 10  5  6  7  8  9 10  5  6  7  8  9 10 11 12 13 17 14 15
TYPE ASSIGNMENTS     18 19 16 20 11 12 13 17 14 15 18 19 16 20
EXPONENTS  0.8264000D+02 0.1241000D+02 0.2824000D+01 0.7977000D+00 0.2581000D+00
EXPONENTS  0.8989000D-01 0.2363000D-01 0.2292000D+01 0.2292000D+01 0.2292000D+01
EXPONENTS  0.8380000D+00 0.8380000D+00 0.8380000D+00 0.2920000D+00 0.2920000D+00
EXPONENTS  0.2920000D+00 0.8480000D-01 0.8480000D-01 0.8480000D-01 0.2062000D+01
EXPONENTS  0.2062000D+01 0.2062000D+01 0.2062000D+01 0.2062000D+01 0.2062000D+01
EXPONENTS  0.6620000D+00 0.6620000D+00 0.6620000D+00 0.6620000D+00 0.6620000D+00
EXPONENTS  0.6620000D+00 0.1900000D+00 0.1900000D+00 0.1900000D+00 0.1900000D+00
EXPONENTS  0.1900000D+00 0.1900000D+00 0.1397000D+01 0.1397000D+01 0.1397000D+01
EXPONENTS  0.1397000D+01 0.1397000D+01 0.1397000D+01 0.1397000D+01 0.1397000D+01
EXPONENTS  0.1397000D+01 0.1397000D+01 0.3600000D+00 0.3600000D+00 0.3600000D+00
EXPONENTS  0.3600000D+00 0.3600000D+00 0.3600000D+00 0.3600000D+00 0.3600000D+00
EXPONENTS  0.3600000D+00 0.3600000D+00 0.8264000D+02 0.1241000D+02 0.2824000D+01
EXPONENTS  0.7977000D+00 0.2581000D+00 0.8989000D-01 0.2363000D-01 0.2292000D+01
EXPONENTS  0.2292000D+01 0.2292000D+01 0.8380000D+00 0.8380000D+00 0.8380000D+00
EXPONENTS  0.2920000D+00 0.2920000D+00 0.2920000D+00 0.8480000D-01 0.8480000D-01
EXPONENTS  0.8480000D-01 0.2062000D+01 0.2062000D+01 0.2062000D+01 0.2062000D+01
EXPONENTS  0.2062000D+01 0.2062000D+01 0.6620000D+00 0.6620000D+00 0.6620000D+00
EXPONENTS  0.6620000D+00 0.6620000D+00 0.6620000D+00 0.1900000D+00 0.1900000D+00
EXPONENTS  0.1900000D+00 0.1900000D+00 0.1900000D+00 0.1900000D+00 0.1397000D+01
EXPONENTS  0.1397000D+01 0.1397000D+01 0.1397000D+01 0.1397000D+01 0.1397000D+01
EXPONENTS  0.1397000D+01 0.1397000D+01 0.1397000D+01 0.1397000D+01 0.3600000D+00
EXPONENTS  0.3600000D+00 0.3600000D+00 0.3600000D+00 0.3600000D+00 0.3600000D+00
EXPONENTS  0.3600000D+00 0.3600000D+00 0.3600000D+00 0.3600000D+00
MO    1     MO 0.0        OCC NO =    1.0000000  ORB. ENERGY =   -0.499949
  0.39207935D-01  0.72341821D-01  0.11740862D+00  0.15424589D+00  0.12873091D+00
  0.34471403D-01  0.19564659D-03  0.16222689D-15 -0.33725515D-15 -0.31538948D-04
 -0.15464540D-15  0.39022584D-15  0.27113709D-04  0.94827369D-16 -0.18737367D-15
 -0.18945320D-04 -0.15897503D-16  0.77008737D-16  0.14022571D-03 -0.15063511D-04
 -0.15063511D-04  0.30127022D-04 -0.44948470D-15 -0.10402348D-15 -0.38593139D-15
  0.14330535D-04  0.14330535D-04 -0.28661070D-04  0.43416623D-16  0.81590913D-16
 -0.16300026D-15 -0.19941461D-04 -0.19941461D-04  0.39882921D-04 -0.19556384D-17
 -0.33297537D-16  0.70032407D-16  0.68095379D-18  0.40663619D-16  0.25354652D-05
  0.86453009D-17 -0.78386859D-16 -0.38031978D-05 -0.10688162D-16 -0.43603996D-16
 -0.38031978D-05 -0.73782413D-16  0.24140041D-17 -0.12128418D-16  0.40172974D-05
 -0.12563441D-16  0.66708740D-17 -0.60259461D-05  0.53214286D-17  0.29714381D-16
 -0.60259461D-05  0.32210519D-16 -0.30268668D-05 -0.55848148D-05 -0.90639878D-05
  0.38513903D-05  0.12693792D-03 -0.37134435D-03  0.11049389D-05 -0.32019830D-15
 -0.29276584D-15  0.34646154D-05  0.52249245D-16 -0.17386096D-17 -0.10775290D-03
 -0.20739095D-17  0.81869452D-16 -0.13569767D-03 -0.19693869D-17 -0.48840958D-16
  0.16618891D-03 -0.94154613D-04 -0.94154613D-04  0.18830923D-03 -0.11816968D-17
 -0.25020343D-15 -0.63320024D-15  0.20604813D-04  0.20604813D-04 -0.41209626D-04
 -0.37550223D-16  0.68819930D-17  0.53433302D-16 -0.14339428D-05 -0.14339428D-05
  0.28678855D-05  0.11549906D-16  0.89209497D-18  0.35995313D-16  0.78668893D-18
 -0.14000996D-16  0.53368698D-04  0.39548994D-16 -0.52758349D-16 -0.80053046D-04
 -0.41909060D-16  0.94761337D-16 -0.80053046D-04  0.16407382D-15 -0.10016993D-16
  0.78770579D-17  0.46775024D-04  0.48514918D-17  0.37743409D-17 -0.70162536D-04
  0.25199488D-16 -0.27405515D-16 -0.70162536D-04 -0.14011482D-16
END DATA
 TOTAL ENERGY =       -0.499949317108 THE VIRIAL(-V/T)=   2.00027096
