 TITLE
GAUSSIAN              1 MOL ORBITALS    114 PRIMITIVES        2 NUCLEI
  H    1    (CENTRE  1)   0.00000000  0.00000000  0.00000000  CHARGE =  1.0
  H    2    (CENTRE  2)   0.00000000  0.00000000  6.61404144  CHARGE =  0.0
CENTRE ASSIGNMENTS    1  1  1  1  1  1  1  1  1  1  1  1  1  1  1  1  1  1  1  1
CENTRE ASSIGNMENTS    1  1  1  1  1  1  1  1  1  1  1  1  1  1  1  1  1  1  1  1
CENTRE ASSIGNMENTS    1  1  1  1  1  1  1  1  1  1  1  1  1  1  1  1  1  2  2  2
CENTRE ASSIGNMENTS    2  2  2  2  2  2  2  2  2  2  2  2  2  2  2  2  2  2  2  2
CENTRE ASSIGNMENTS    2  2  2  2  2  2  2  2  2  2  2  2  2  2  2  2  2  2  2  2
CENTRE ASSIGNMENTS    2  2  2  2  2  2  2  2  2  2  2  2  2  2
TYPE ASSIGNMENTS      1  1  1  1  1  1  1  2  3  4  2  3  4  2  3  4  2  3  4  5
TYPE ASSIGNMENTS      6  7  8  9 10  5  6  7  8  9 10  5  6  7  8  9 10 11 12 13
TYPE ASSIGNMENTS     17 14 15 18 19 16 20 11 12 13 17 14 15 18 19 16 20  1  1  1
TYPE ASSIGNMENTS      1  1  1  1  2  3  4  2  3  4  2  3  4  2  3  4  5  6  7  8
TYPE ASSIGNMENTS      9 10  5  6  7  8  9 10  5  6  7  8  9 10 11 12 13 17 14 15
TYPE ASSIGNMENTS     18 19 16 20 11 12 13 17 14 15 18 19 16 20
EXPONENTS  0.8264000D+02 0.1241000D+02 0.2824000D+01 0.7977000D+00 0.2581000D+00
EXPONENTS  0.8989000D-01 0.2363000D-01 0.2292000D+01 0.2292000D+01 0.2292000D+01
EXPONENTS  0.8380000D+00 0.8380000D+00 0.8380000D+00 0.2920000D+00 0.2920000D+00
EXPONENTS  0.2920000D+00 0.8480000D-01 0.8480000D-01 0.8480000D-01 0.2062000D+01
EXPONENTS  0.2062000D+01 0.2062000D+01 0.2062000D+01 0.2062000D+01 0.2062000D+01
EXPONENTS  0.6620000D+00 0.6620000D+00 0.6620000D+00 0.6620000D+00 0.6620000D+00
EXPONENTS  0.6620000D+00 0.1900000D+00 0.1900000D+00 0.1900000D+00 0.1900000D+00
EXPONENTS  0.1900000D+00 0.1900000D+00 0.1397000D+01 0.1397000D+01 0.1397000D+01
EXPONENTS  0.1397000D+01 0.1397000D+01 0.1397000D+01 0.1397000D+01 0.1397000D+01
EXPONENTS  0.1397000D+01 0.1397000D+01 0.3600000D+00 0.3600000D+00 0.3600000D+00
EXPONENTS  0.3600000D+00 0.3600000D+00 0.3600000D+00 0.3600000D+00 0.3600000D+00
EXPONENTS  0.3600000D+00 0.3600000D+00 0.8264000D+02 0.1241000D+02 0.2824000D+01
EXPONENTS  0.7977000D+00 0.2581000D+00 0.8989000D-01 0.2363000D-01 0.2292000D+01
EXPONENTS  0.2292000D+01 0.2292000D+01 0.8380000D+00 0.8380000D+00 0.8380000D+00
EXPONENTS  0.2920000D+00 0.2920000D+00 0.2920000D+00 0.8480000D-01 0.8480000D-01
EXPONENTS  0.8480000D-01 0.2062000D+01 0.2062000D+01 0.2062000D+01 0.2062000D+01
EXPONENTS  0.2062000D+01 0.2062000D+01 0.6620000D+00 0.6620000D+00 0.6620000D+00
EXPONENTS  0.6620000D+00 0.6620000D+00 0.6620000D+00 0.1900000D+00 0.1900000D+00
EXPONENTS  0.1900000D+00 0.1900000D+00 0.1900000D+00 0.1900000D+00 0.1397000D+01
EXPONENTS  0.1397000D+01 0.1397000D+01 0.1397000D+01 0.1397000D+01 0.1397000D+01
EXPONENTS  0.1397000D+01 0.1397000D+01 0.1397000D+01 0.1397000D+01 0.3600000D+00
EXPONENTS  0.3600000D+00 0.3600000D+00 0.3600000D+00 0.3600000D+00 0.3600000D+00
EXPONENTS  0.3600000D+00 0.3600000D+00 0.3600000D+00 0.3600000D+00
MO    1     MO 0.0        OCC NO =    1.0000000  ORB. ENERGY =   -0.499949
  0.39208960D-01  0.72343710D-01  0.11741168D+00  0.15423035D+00  0.12882433D+00
  0.34201118D-01  0.17649061D-03 -0.48593184D-17 -0.46732857D-15 -0.61292274D-04
  0.92023764D-16  0.39621204D-15  0.77308354D-04 -0.54297552D-16 -0.13186351D-15
 -0.63317066D-04  0.13197469D-16  0.23466561D-16  0.33072471D-04 -0.29384982D-04
 -0.29384982D-04  0.58769963D-04 -0.24881116D-15 -0.15604391D-15  0.22088271D-15
  0.19382829D-04  0.19382829D-04 -0.38765658D-04 -0.61701760D-17  0.70006959D-16
  0.83540745D-16 -0.77703465D-05 -0.77703465D-05  0.15540693D-04 -0.74672857D-17
 -0.17084392D-16 -0.20468256D-16 -0.32345577D-16 -0.66126547D-16 -0.12391286D-04
  0.14975814D-15  0.83136512D-16  0.18586930D-04 -0.52721412D-16  0.11524313D-15
  0.18586930D-04 -0.16098648D-15  0.72804779D-18  0.11005705D-17  0.38566990D-05
 -0.81675635D-17 -0.54448002D-17 -0.57850486D-05  0.59834201D-17  0.21430888D-17
 -0.57850486D-05  0.23034193D-18 -0.17013347D-05 -0.31391005D-05 -0.50946665D-05
  0.23769420D-04  0.28478976D-04 -0.36064536D-04  0.65982909D-05  0.15268447D-15
  0.92665527D-17  0.32756762D-04 -0.11127535D-15  0.23775155D-15 -0.65655665D-04
  0.51658173D-16 -0.16118594D-15  0.74966150D-04 -0.11931042D-16  0.31794181D-16
  0.37724115D-04 -0.13925520D-04 -0.13925520D-04  0.27851039D-04  0.11647362D-14
  0.17471279D-14 -0.13953548D-14  0.76795792D-05  0.76795792D-05 -0.15359158D-04
 -0.69686740D-16 -0.19643246D-15  0.70093193D-16  0.16586796D-04  0.16586796D-04
 -0.33173593D-04 -0.16066861D-17  0.12000697D-16  0.37210278D-17  0.69278989D-16
 -0.40903151D-16  0.72106932D-04 -0.13745939D-15  0.92739174D-16 -0.10816040D-03
 -0.70377571D-16  0.29970278D-16 -0.10816040D-03  0.45545584D-16 -0.20334927D-17
  0.74446245D-18 -0.14838170D-04  0.95875775D-18 -0.61719754D-19  0.22257254D-04
  0.51417204D-17 -0.21716676D-17  0.22257254D-04  0.31066854D-18
END DATA
 TOTAL ENERGY =       -0.499948691051 THE VIRIAL(-V/T)=   2.00027784
