 TITLE
GAUSSIAN              1 MOL ORBITALS    114 PRIMITIVES        2 NUCLEI
  H    1    (CENTRE  1)   0.00000000  0.00000000  0.00000000  CHARGE =  1.0
  H    2    (CENTRE  2)   0.00000000  0.00000000  6.99198666  CHARGE =  0.0
CENTRE ASSIGNMENTS    1  1  1  1  1  1  1  1  1  1  1  1  1  1  1  1  1  1  1  1
CENTRE ASSIGNMENTS    1  1  1  1  1  1  1  1  1  1  1  1  1  1  1  1  1  1  1  1
CENTRE ASSIGNMENTS    1  1  1  1  1  1  1  1  1  1  1  1  1  1  1  1  1  2  2  2
CENTRE ASSIGNMENTS    2  2  2  2  2  2  2  2  2  2  2  2  2  2  2  2  2  2  2  2
CENTRE ASSIGNMENTS    2  2  2  2  2  2  2  2  2  2  2  2  2  2  2  2  2  2  2  2
CENTRE ASSIGNMENTS    2  2  2  2  2  2  2  2  2  2  2  2  2  2
TYPE ASSIGNMENTS      1  1  1  1  1  1  1  2  3  4  2  3  4  2  3  4  2  3  4  5
TYPE ASSIGNMENTS      6  7  8  9 10  5  6  7  8  9 10  5  6  7  8  9 10 11 12 13
TYPE ASSIGNMENTS     17 14 15 18 19 16 20 11 12 13 17 14 15 18 19 16 20  1  1  1
TYPE ASSIGNMENTS      1  1  1  1  2  3  4  2  3  4  2  3  4  2  3  4  5  6  7  8
TYPE ASSIGNMENTS      9 10  5  6  7  8  9 10  5  6  7  8  9 10 11 12 13 17 14 15
TYPE ASSIGNMENTS     18 19 16 20 11 12 13 17 14 15 18 19 16 20
EXPONENTS  0.8264000D+02 0.1241000D+02 0.2824000D+01 0.7977000D+00 0.2581000D+00
EXPONENTS  0.8989000D-01 0.2363000D-01 0.2292000D+01 0.2292000D+01 0.2292000D+01
EXPONENTS  0.8380000D+00 0.8380000D+00 0.8380000D+00 0.2920000D+00 0.2920000D+00
EXPONENTS  0.2920000D+00 0.8480000D-01 0.8480000D-01 0.8480000D-01 0.2062000D+01
EXPONENTS  0.2062000D+01 0.2062000D+01 0.2062000D+01 0.2062000D+01 0.2062000D+01
EXPONENTS  0.6620000D+00 0.6620000D+00 0.6620000D+00 0.6620000D+00 0.6620000D+00
EXPONENTS  0.6620000D+00 0.1900000D+00 0.1900000D+00 0.1900000D+00 0.1900000D+00
EXPONENTS  0.1900000D+00 0.1900000D+00 0.1397000D+01 0.1397000D+01 0.1397000D+01
EXPONENTS  0.1397000D+01 0.1397000D+01 0.1397000D+01 0.1397000D+01 0.1397000D+01
EXPONENTS  0.1397000D+01 0.1397000D+01 0.3600000D+00 0.3600000D+00 0.3600000D+00
EXPONENTS  0.3600000D+00 0.3600000D+00 0.3600000D+00 0.3600000D+00 0.3600000D+00
EXPONENTS  0.3600000D+00 0.3600000D+00 0.8264000D+02 0.1241000D+02 0.2824000D+01
EXPONENTS  0.7977000D+00 0.2581000D+00 0.8989000D-01 0.2363000D-01 0.2292000D+01
EXPONENTS  0.2292000D+01 0.2292000D+01 0.8380000D+00 0.8380000D+00 0.8380000D+00
EXPONENTS  0.2920000D+00 0.2920000D+00 0.2920000D+00 0.8480000D-01 0.8480000D-01
EXPONENTS  0.8480000D-01 0.2062000D+01 0.2062000D+01 0.2062000D+01 0.2062000D+01
EXPONENTS  0.2062000D+01 0.2062000D+01 0.6620000D+00 0.6620000D+00 0.6620000D+00
EXPONENTS  0.6620000D+00 0.6620000D+00 0.6620000D+00 0.1900000D+00 0.1900000D+00
EXPONENTS  0.1900000D+00 0.1900000D+00 0.1900000D+00 0.1900000D+00 0.1397000D+01
EXPONENTS  0.1397000D+01 0.1397000D+01 0.1397000D+01 0.1397000D+01 0.1397000D+01
EXPONENTS  0.1397000D+01 0.1397000D+01 0.1397000D+01 0.1397000D+01 0.3600000D+00
EXPONENTS  0.3600000D+00 0.3600000D+00 0.3600000D+00 0.3600000D+00 0.3600000D+00
EXPONENTS  0.3600000D+00 0.3600000D+00 0.3600000D+00 0.3600000D+00
MO    1     MO 0.0        OCC NO =    1.0000000  ORB. ENERGY =   -0.499949
  0.39209022D-01  0.72343826D-01  0.11741187D+00  0.15422878D+00  0.12883011D+00
  0.34194701D-01  0.17563072D-03  0.19869406D-15 -0.16957176D-15 -0.63708423D-04
 -0.18846289D-15  0.19545722D-15  0.79708076D-04  0.12806977D-15 -0.99714765D-16
 -0.62947405D-04 -0.21343394D-16  0.10451973D-16  0.29052560D-04 -0.27537047D-04
 -0.27537047D-04  0.55074095D-04  0.16420526D-15 -0.10919226D-16 -0.70529511D-16
  0.17893471D-04  0.17893471D-04 -0.35786943D-04  0.28404619D-16 -0.77848041D-16
  0.84956765D-16 -0.67264538D-05 -0.67264538D-05  0.13452908D-04 -0.19674894D-17
  0.14259230D-16 -0.19476812D-16 -0.33032607D-16  0.26017341D-16 -0.10214685D-04
 -0.30903262D-16 -0.11645024D-16  0.15322027D-04  0.13000108D-15 -0.66407000D-16
  0.15322027D-04  0.11861341D-15 -0.18995639D-17 -0.32655375D-17  0.30463877D-05
  0.42255710D-17  0.20660220D-17 -0.45695815D-05  0.14731207D-17  0.77305906D-17
 -0.45695815D-05  0.99103344D-18 -0.13507639D-05 -0.24922690D-05 -0.40448782D-05
  0.77124293D-05  0.63385417D-04 -0.35908753D-04  0.69878970D-05  0.18762660D-15
  0.43407814D-15  0.74593985D-04 -0.13048136D-15 -0.46708055D-16 -0.99562038D-04
  0.31127917D-16 -0.24209624D-16  0.52164988D-04 -0.52849598D-17  0.92346321D-17
  0.32971470D-04  0.10937660D-04  0.10937660D-04 -0.21875321D-04 -0.85574047D-15
 -0.15486882D-14 -0.28487638D-15 -0.13248278D-04 -0.13248278D-04  0.26496555D-04
  0.68650584D-16  0.19584040D-15  0.11241907D-16  0.22608636D-04  0.22608636D-04
 -0.45217272D-04 -0.91855093D-17 -0.24323235D-16 -0.27969475D-17  0.11306256D-16
 -0.11217765D-16  0.35542151D-05  0.11234404D-16 -0.33192244D-16 -0.53313227D-05
 -0.45153170D-16  0.66845539D-16 -0.53313227D-05 -0.10629688D-16 -0.91965713D-18
  0.27012954D-17  0.67159344D-05 -0.42082545D-18  0.26421312D-17 -0.10073902D-04
  0.31797968D-17 -0.10746017D-16 -0.10073902D-04  0.19684454D-17
END DATA
 TOTAL ENERGY =       -0.499948683985 THE VIRIAL(-V/T)=   2.00027867
