 TITLE
GAUSSIAN              1 MOL ORBITALS    114 PRIMITIVES        2 NUCLEI
  H    1    (CENTRE  1)   0.00000000  0.00000000  0.00000000  CHARGE =  1.0
  H    2    (CENTRE  2)   0.00000000  0.00000000 10.77143891  CHARGE =  0.0
CENTRE ASSIGNMENTS    1  1  1  1  1  1  1  1  1  1  1  1  1  1  1  1  1  1  1  1
CENTRE ASSIGNMENTS    1  1  1  1  1  1  1  1  1  1  1  1  1  1  1  1  1  1  1  1
CENTRE ASSIGNMENTS    1  1  1  1  1  1  1  1  1  1  1  1  1  1  1  1  1  2  2  2
CENTRE ASSIGNMENTS    2  2  2  2  2  2  2  2  2  2  2  2  2  2  2  2  2  2  2  2
CENTRE ASSIGNMENTS    2  2  2  2  2  2  2  2  2  2  2  2  2  2  2  2  2  2  2  2
CENTRE ASSIGNMENTS    2  2  2  2  2  2  2  2  2  2  2  2  2  2
TYPE ASSIGNMENTS      1  1  1  1  1  1  1  2  3  4  2  3  4  2  3  4  2  3  4  5
TYPE ASSIGNMENTS      6  7  8  9 10  5  6  7  8  9 10  5  6  7  8  9 10 11 12 13
TYPE ASSIGNMENTS     17 14 15 18 19 16 20 11 12 13 17 14 15 18 19 16 20  1  1  1
TYPE ASSIGNMENTS      1  1  1  1  2  3  4  2  3  4  2  3  4  2  3  4  5  6  7  8
TYPE ASSIGNMENTS      9 10  5  6  7  8  9 10  5  6  7  8  9 10 11 12 13 17 14 15
TYPE ASSIGNMENTS     18 19 16 20 11 12 13 17 14 15 18 19 16 20
EXPONENTS  0.8264000D+02 0.1241000D+02 0.2824000D+01 0.7977000D+00 0.2581000D+00
EXPONENTS  0.8989000D-01 0.2363000D-01 0.2292000D+01 0.2292000D+01 0.2292000D+01
EXPONENTS  0.8380000D+00 0.8380000D+00 0.8380000D+00 0.2920000D+00 0.2920000D+00
EXPONENTS  0.2920000D+00 0.8480000D-01 0.8480000D-01 0.8480000D-01 0.2062000D+01
EXPONENTS  0.2062000D+01 0.2062000D+01 0.2062000D+01 0.2062000D+01 0.2062000D+01
EXPONENTS  0.6620000D+00 0.6620000D+00 0.6620000D+00 0.6620000D+00 0.6620000D+00
EXPONENTS  0.6620000D+00 0.1900000D+00 0.1900000D+00 0.1900000D+00 0.1900000D+00
EXPONENTS  0.1900000D+00 0.1900000D+00 0.1397000D+01 0.1397000D+01 0.1397000D+01
EXPONENTS  0.1397000D+01 0.1397000D+01 0.1397000D+01 0.1397000D+01 0.1397000D+01
EXPONENTS  0.1397000D+01 0.1397000D+01 0.3600000D+00 0.3600000D+00 0.3600000D+00
EXPONENTS  0.3600000D+00 0.3600000D+00 0.3600000D+00 0.3600000D+00 0.3600000D+00
EXPONENTS  0.3600000D+00 0.3600000D+00 0.8264000D+02 0.1241000D+02 0.2824000D+01
EXPONENTS  0.7977000D+00 0.2581000D+00 0.8989000D-01 0.2363000D-01 0.2292000D+01
EXPONENTS  0.2292000D+01 0.2292000D+01 0.8380000D+00 0.8380000D+00 0.8380000D+00
EXPONENTS  0.2920000D+00 0.2920000D+00 0.2920000D+00 0.8480000D-01 0.8480000D-01
EXPONENTS  0.8480000D-01 0.2062000D+01 0.2062000D+01 0.2062000D+01 0.2062000D+01
EXPONENTS  0.2062000D+01 0.2062000D+01 0.6620000D+00 0.6620000D+00 0.6620000D+00
EXPONENTS  0.6620000D+00 0.6620000D+00 0.6620000D+00 0.1900000D+00 0.1900000D+00
EXPONENTS  0.1900000D+00 0.1900000D+00 0.1900000D+00 0.1900000D+00 0.1397000D+01
EXPONENTS  0.1397000D+01 0.1397000D+01 0.1397000D+01 0.1397000D+01 0.1397000D+01
EXPONENTS  0.1397000D+01 0.1397000D+01 0.1397000D+01 0.1397000D+01 0.3600000D+00
EXPONENTS  0.3600000D+00 0.3600000D+00 0.3600000D+00 0.3600000D+00 0.3600000D+00
EXPONENTS  0.3600000D+00 0.3600000D+00 0.3600000D+00 0.3600000D+00
MO    1     MO 0.0        OCC NO =    1.0000000  ORB. ENERGY =   -0.499948
  0.39212527D-01  0.72350293D-01  0.11742237D+00  0.15418984D+00  0.12888729D+00
  0.34168117D-01  0.16957486D-03  0.37813970D-15  0.30531570D-15  0.74311808D-05
 -0.28590564D-15 -0.22943481D-15 -0.90485744D-05  0.14728956D-15  0.10352122D-15
  0.65022600D-05 -0.24806951D-16 -0.17466532D-16 -0.26952918D-05  0.43109921D-06
  0.43109921D-06 -0.86219841D-06 -0.34997648D-15 -0.25105057D-15 -0.23270792D-15
 -0.28138656D-06 -0.28138656D-06  0.56277312D-06  0.95601900D-16  0.95945493D-16
  0.29499249D-16  0.93266040D-07  0.93266040D-07 -0.18653208D-06 -0.29892340D-16
 -0.22580020D-16 -0.17373704D-17  0.24018675D-16  0.42374164D-16  0.82476172D-08
 -0.84831508D-16 -0.91828262D-16 -0.12371426D-07  0.12775482D-16 -0.35294231D-16
 -0.12371426D-07 -0.75706918D-17  0.13868509D-17 -0.36414631D-18  0.23282572D-08
 -0.49656809D-17  0.19115396D-17 -0.34923857D-08  0.80512828D-18 -0.81910073D-18
 -0.34923857D-08  0.61459686D-17 -0.20175760D-05 -0.37225913D-05 -0.60416547D-05
  0.23015867D-04 -0.35032587D-04  0.10498179D-04  0.82500576D-05  0.12261810D-15
 -0.54931623D-16  0.38065548D-04 -0.60059241D-16  0.24651270D-16 -0.48995506D-04
  0.20570249D-16 -0.30392662D-17  0.42366076D-04  0.69410672D-18 -0.24953294D-17
 -0.22655558D-04 -0.24225400D-04 -0.24225400D-04  0.48450800D-04 -0.30589147D-16
 -0.37654069D-15 -0.91959374D-15  0.15762361D-04  0.15762361D-04 -0.31524721D-04
 -0.63544178D-17 -0.54703617D-16  0.73535913D-16 -0.62025111D-05 -0.62025111D-05
  0.12405022D-04 -0.35598012D-17  0.80682918D-17 -0.72471885D-17 -0.44771087D-17
 -0.42314266D-18  0.10801954D-04  0.28125132D-17 -0.44247250D-17 -0.16202931D-04
  0.10618813D-16  0.56941529D-17 -0.16202931D-04  0.37149303D-17 -0.28102712D-18
  0.19432061D-20 -0.33184551D-05  0.46005078D-18  0.20732984D-17  0.49776826D-05
  0.38303056D-18 -0.20791280D-17  0.49776826D-05  0.25345297D-17
END DATA
 TOTAL ENERGY =       -0.499948398975 THE VIRIAL(-V/T)=   2.00027975
