 TITLE
GAUSSIAN              1 MOL ORBITALS    114 PRIMITIVES        2 NUCLEI
  H    1    (CENTRE  1)   0.00000000  0.00000000  0.00000000  CHARGE =  1.0
  H    2    (CENTRE  2)   0.00000000  0.00000000  4.15739747  CHARGE =  0.0
CENTRE ASSIGNMENTS    1  1  1  1  1  1  1  1  1  1  1  1  1  1  1  1  1  1  1  1
CENTRE ASSIGNMENTS    1  1  1  1  1  1  1  1  1  1  1  1  1  1  1  1  1  1  1  1
CENTRE ASSIGNMENTS    1  1  1  1  1  1  1  1  1  1  1  1  1  1  1  1  1  2  2  2
CENTRE ASSIGNMENTS    2  2  2  2  2  2  2  2  2  2  2  2  2  2  2  2  2  2  2  2
CENTRE ASSIGNMENTS    2  2  2  2  2  2  2  2  2  2  2  2  2  2  2  2  2  2  2  2
CENTRE ASSIGNMENTS    2  2  2  2  2  2  2  2  2  2  2  2  2  2
TYPE ASSIGNMENTS      1  1  1  1  1  1  1  2  3  4  2  3  4  2  3  4  2  3  4  5
TYPE ASSIGNMENTS      6  7  8  9 10  5  6  7  8  9 10  5  6  7  8  9 10 11 12 13
TYPE ASSIGNMENTS     17 14 15 18 19 16 20 11 12 13 17 14 15 18 19 16 20  1  1  1
TYPE ASSIGNMENTS      1  1  1  1  2  3  4  2  3  4  2  3  4  2  3  4  5  6  7  8
TYPE ASSIGNMENTS      9 10  5  6  7  8  9 10  5  6  7  8  9 10 11 12 13 17 14 15
TYPE ASSIGNMENTS     18 19 16 20 11 12 13 17 14 15 18 19 16 20
EXPONENTS  0.8264000D+02 0.1241000D+02 0.2824000D+01 0.7977000D+00 0.2581000D+00
EXPONENTS  0.8989000D-01 0.2363000D-01 0.2292000D+01 0.2292000D+01 0.2292000D+01
EXPONENTS  0.8380000D+00 0.8380000D+00 0.8380000D+00 0.2920000D+00 0.2920000D+00
EXPONENTS  0.2920000D+00 0.8480000D-01 0.8480000D-01 0.8480000D-01 0.2062000D+01
EXPONENTS  0.2062000D+01 0.2062000D+01 0.2062000D+01 0.2062000D+01 0.2062000D+01
EXPONENTS  0.6620000D+00 0.6620000D+00 0.6620000D+00 0.6620000D+00 0.6620000D+00
EXPONENTS  0.6620000D+00 0.1900000D+00 0.1900000D+00 0.1900000D+00 0.1900000D+00
EXPONENTS  0.1900000D+00 0.1900000D+00 0.1397000D+01 0.1397000D+01 0.1397000D+01
EXPONENTS  0.1397000D+01 0.1397000D+01 0.1397000D+01 0.1397000D+01 0.1397000D+01
EXPONENTS  0.1397000D+01 0.1397000D+01 0.3600000D+00 0.3600000D+00 0.3600000D+00
EXPONENTS  0.3600000D+00 0.3600000D+00 0.3600000D+00 0.3600000D+00 0.3600000D+00
EXPONENTS  0.3600000D+00 0.3600000D+00 0.8264000D+02 0.1241000D+02 0.2824000D+01
EXPONENTS  0.7977000D+00 0.2581000D+00 0.8989000D-01 0.2363000D-01 0.2292000D+01
EXPONENTS  0.2292000D+01 0.2292000D+01 0.8380000D+00 0.8380000D+00 0.8380000D+00
EXPONENTS  0.2920000D+00 0.2920000D+00 0.2920000D+00 0.8480000D-01 0.8480000D-01
EXPONENTS  0.8480000D-01 0.2062000D+01 0.2062000D+01 0.2062000D+01 0.2062000D+01
EXPONENTS  0.2062000D+01 0.2062000D+01 0.6620000D+00 0.6620000D+00 0.6620000D+00
EXPONENTS  0.6620000D+00 0.6620000D+00 0.6620000D+00 0.1900000D+00 0.1900000D+00
EXPONENTS  0.1900000D+00 0.1900000D+00 0.1900000D+00 0.1900000D+00 0.1397000D+01
EXPONENTS  0.1397000D+01 0.1397000D+01 0.1397000D+01 0.1397000D+01 0.1397000D+01
EXPONENTS  0.1397000D+01 0.1397000D+01 0.1397000D+01 0.1397000D+01 0.3600000D+00
EXPONENTS  0.3600000D+00 0.3600000D+00 0.3600000D+00 0.3600000D+00 0.3600000D+00
EXPONENTS  0.3600000D+00 0.3600000D+00 0.3600000D+00 0.3600000D+00
MO    1     MO 0.0        OCC NO =    1.0000000  ORB. ENERGY =   -0.499949
  0.39208743D-01  0.72343310D-01  0.11741104D+00  0.15423551D+00  0.12872277D+00
  0.34576065D-01  0.20012596D-03  0.15810396D-14 -0.64888975D-15  0.94285029D-06
 -0.43163587D-15  0.18903604D-15 -0.19925837D-04  0.98935885D-16 -0.38333426D-16
  0.26884402D-04 -0.23358627D-16 -0.22537218D-16  0.17345052D-03 -0.94661655D-05
 -0.94661655D-05  0.18932331D-04  0.20328554D-14  0.36624160D-15 -0.28521726D-14
  0.11822945D-04  0.11822945D-04 -0.23645890D-04 -0.22626386D-15 -0.83164494D-16
  0.35980089D-15 -0.26036549D-04 -0.26036549D-04  0.52073099D-04  0.22230455D-16
 -0.12573579D-16 -0.46896398D-16 -0.32139794D-15 -0.62917750D-16 -0.66516444D-05
  0.58864434D-15 -0.20592923D-14  0.99774666D-05  0.37554948D-15  0.22480455D-14
  0.99774666D-05 -0.56194639D-15  0.12297659D-16 -0.36808089D-17  0.96574167D-05
 -0.83956442D-18  0.56053939D-16 -0.14486125D-04 -0.36053414D-16 -0.45011512D-16
 -0.14486125D-04  0.15939092D-16 -0.20734073D-05 -0.38256047D-05 -0.62088424D-05
  0.44443823D-04  0.15107849D-03 -0.48926020D-03 -0.17605597D-05 -0.13654789D-14
  0.13871362D-15 -0.84104709D-04  0.16321452D-15  0.59298377D-16 -0.59335861D-04
  0.18850256D-16 -0.34496075D-17 -0.12463578D-03  0.17620879D-16  0.20570489D-16
  0.19951261D-03 -0.11906130D-03 -0.11906130D-03  0.23812260D-03 -0.54631168D-15
  0.21601747D-14 -0.40214440D-14  0.66003929D-04  0.66003929D-04 -0.13200786D-03
  0.20412086D-16 -0.76315124D-16  0.35703660D-15  0.47312094D-05  0.47312094D-05
 -0.94624187D-05 -0.12509394D-16 -0.38953966D-16 -0.43936701D-16 -0.14088076D-14
 -0.82497520D-15  0.10893233D-03  0.29264489D-14  0.29774408D-16 -0.16339850D-03
  0.12999739D-14  0.24451512D-14 -0.16339850D-03 -0.30350476D-14  0.15998374D-16
  0.94507862D-18  0.58421837D-04 -0.33112840D-16  0.50016492D-17 -0.87632755D-04
 -0.14882282D-16 -0.78368851D-17 -0.87632755D-04  0.52005911D-16
END DATA
 TOTAL ENERGY =       -0.499949464734 THE VIRIAL(-V/T)=   2.00027033
