 TITLE
GAUSSIAN              1 MOL ORBITALS    114 PRIMITIVES        2 NUCLEI
  H    1    (CENTRE  1)   0.00000000  0.00000000  0.00000000  CHARGE =  1.0
  H    2    (CENTRE  2)   0.00000000  0.00000000  3.77945225  CHARGE =  0.0
CENTRE ASSIGNMENTS    1  1  1  1  1  1  1  1  1  1  1  1  1  1  1  1  1  1  1  1
CENTRE ASSIGNMENTS    1  1  1  1  1  1  1  1  1  1  1  1  1  1  1  1  1  1  1  1
CENTRE ASSIGNMENTS    1  1  1  1  1  1  1  1  1  1  1  1  1  1  1  1  1  2  2  2
CENTRE ASSIGNMENTS    2  2  2  2  2  2  2  2  2  2  2  2  2  2  2  2  2  2  2  2
CENTRE ASSIGNMENTS    2  2  2  2  2  2  2  2  2  2  2  2  2  2  2  2  2  2  2  2
CENTRE ASSIGNMENTS    2  2  2  2  2  2  2  2  2  2  2  2  2  2
TYPE ASSIGNMENTS      1  1  1  1  1  1  1  2  3  4  2  3  4  2  3  4  2  3  4  5
TYPE ASSIGNMENTS      6  7  8  9 10  5  6  7  8  9 10  5  6  7  8  9 10 11 12 13
TYPE ASSIGNMENTS     17 14 15 18 19 16 20 11 12 13 17 14 15 18 19 16 20  1  1  1
TYPE ASSIGNMENTS      1  1  1  1  2  3  4  2  3  4  2  3  4  2  3  4  5  6  7  8
TYPE ASSIGNMENTS      9 10  5  6  7  8  9 10  5  6  7  8  9 10 11 12 13 17 14 15
TYPE ASSIGNMENTS     18 19 16 20 11 12 13 17 14 15 18 19 16 20
EXPONENTS  0.8264000D+02 0.1241000D+02 0.2824000D+01 0.7977000D+00 0.2581000D+00
EXPONENTS  0.8989000D-01 0.2363000D-01 0.2292000D+01 0.2292000D+01 0.2292000D+01
EXPONENTS  0.8380000D+00 0.8380000D+00 0.8380000D+00 0.2920000D+00 0.2920000D+00
EXPONENTS  0.2920000D+00 0.8480000D-01 0.8480000D-01 0.8480000D-01 0.2062000D+01
EXPONENTS  0.2062000D+01 0.2062000D+01 0.2062000D+01 0.2062000D+01 0.2062000D+01
EXPONENTS  0.6620000D+00 0.6620000D+00 0.6620000D+00 0.6620000D+00 0.6620000D+00
EXPONENTS  0.6620000D+00 0.1900000D+00 0.1900000D+00 0.1900000D+00 0.1900000D+00
EXPONENTS  0.1900000D+00 0.1900000D+00 0.1397000D+01 0.1397000D+01 0.1397000D+01
EXPONENTS  0.1397000D+01 0.1397000D+01 0.1397000D+01 0.1397000D+01 0.1397000D+01
EXPONENTS  0.1397000D+01 0.1397000D+01 0.3600000D+00 0.3600000D+00 0.3600000D+00
EXPONENTS  0.3600000D+00 0.3600000D+00 0.3600000D+00 0.3600000D+00 0.3600000D+00
EXPONENTS  0.3600000D+00 0.3600000D+00 0.8264000D+02 0.1241000D+02 0.2824000D+01
EXPONENTS  0.7977000D+00 0.2581000D+00 0.8989000D-01 0.2363000D-01 0.2292000D+01
EXPONENTS  0.2292000D+01 0.2292000D+01 0.8380000D+00 0.8380000D+00 0.8380000D+00
EXPONENTS  0.2920000D+00 0.2920000D+00 0.2920000D+00 0.8480000D-01 0.8480000D-01
EXPONENTS  0.8480000D-01 0.2062000D+01 0.2062000D+01 0.2062000D+01 0.2062000D+01
EXPONENTS  0.2062000D+01 0.2062000D+01 0.6620000D+00 0.6620000D+00 0.6620000D+00
EXPONENTS  0.6620000D+00 0.6620000D+00 0.6620000D+00 0.1900000D+00 0.1900000D+00
EXPONENTS  0.1900000D+00 0.1900000D+00 0.1900000D+00 0.1900000D+00 0.1397000D+01
EXPONENTS  0.1397000D+01 0.1397000D+01 0.1397000D+01 0.1397000D+01 0.1397000D+01
EXPONENTS  0.1397000D+01 0.1397000D+01 0.1397000D+01 0.1397000D+01 0.3600000D+00
EXPONENTS  0.3600000D+00 0.3600000D+00 0.3600000D+00 0.3600000D+00 0.3600000D+00
EXPONENTS  0.3600000D+00 0.3600000D+00 0.3600000D+00 0.3600000D+00
MO    1     MO 0.0        OCC NO =    1.0000000  ORB. ENERGY =   -0.499950
  0.39209752D-01  0.72345173D-01  0.11741406D+00  0.15421283D+00  0.12873809D+00
  0.34879361D-01  0.21215255D-03 -0.54361237D-15 -0.96535314D-16  0.45841455D-04
  0.29864587D-15  0.16426214D-15 -0.96201795D-04 -0.18233102D-15 -0.80330692D-16
  0.14729900D-03 -0.41260526D-16  0.62635256D-16  0.26002918D-03  0.13279644D-04
  0.13279644D-04 -0.26559287D-04 -0.44853381D-15 -0.50072335D-15  0.36349011D-15
 -0.30045513D-05 -0.30045513D-05  0.60091025D-05  0.75245109D-16 -0.14866010D-15
 -0.21522016D-15 -0.37220827D-04 -0.37220827D-04  0.74441654D-04  0.24291171D-17
 -0.62057135D-16  0.87010659D-16 -0.16626020D-15 -0.99431073D-16 -0.10526409D-04
  0.13435816D-15  0.62127569D-16  0.15789614D-04  0.36442244D-15  0.23616565D-15
  0.15789614D-04  0.51636404D-16  0.32367429D-16  0.11929934D-18  0.17388861D-04
 -0.95855006D-17 -0.13215175D-16 -0.26083291D-04 -0.87516786D-16  0.12857276D-16
 -0.26083291D-04 -0.15296242D-16  0.66878118D-05  0.12339555D-04  0.20026730D-04
  0.61955495D-04  0.22927618D-03 -0.83127461D-03 -0.10297653D-04  0.49247807D-15
 -0.71217900D-15 -0.20182704D-03 -0.73925425D-16  0.46806120D-16  0.13955876D-03
 -0.33225313D-16  0.47328029D-16 -0.76812060D-04  0.34412062D-16 -0.47304175D-16
  0.28753535D-03 -0.49363436D-04 -0.49363436D-04  0.98726873D-04  0.13047131D-14
 -0.99911913D-15  0.72535335D-15  0.12089710D-03  0.12089710D-03 -0.24179421D-03
 -0.10150825D-15  0.14714019D-15 -0.11978254D-15  0.23490074D-04  0.23490074D-04
 -0.46980147D-04  0.26545671D-17 -0.67909825D-16  0.64283912D-16  0.94570880D-16
  0.40885861D-16  0.53141843D-04  0.23920861D-16  0.64137292D-17 -0.79712764D-04
 -0.30763350D-15 -0.12907131D-15 -0.79712764D-04  0.32929263D-16 -0.21481215D-16
  0.44737569D-17  0.68543480D-04 -0.18143005D-16  0.45647941D-17 -0.10281522D-03
  0.82586651D-16 -0.17986065D-16 -0.10281522D-03 -0.10716817D-16
END DATA
 TOTAL ENERGY =       -0.499949667051 THE VIRIAL(-V/T)=   2.00027061
