 TITLE
GAUSSIAN              1 MOL ORBITALS    114 PRIMITIVES        2 NUCLEI
  H    1    (CENTRE  1)   0.00000000  0.00000000  0.00000000  CHARGE =  1.0
  H    2    (CENTRE  2)   0.00000000  0.00000000 12.47219242  CHARGE =  0.0
CENTRE ASSIGNMENTS    1  1  1  1  1  1  1  1  1  1  1  1  1  1  1  1  1  1  1  1
CENTRE ASSIGNMENTS    1  1  1  1  1  1  1  1  1  1  1  1  1  1  1  1  1  1  1  1
CENTRE ASSIGNMENTS    1  1  1  1  1  1  1  1  1  1  1  1  1  1  1  1  1  2  2  2
CENTRE ASSIGNMENTS    2  2  2  2  2  2  2  2  2  2  2  2  2  2  2  2  2  2  2  2
CENTRE ASSIGNMENTS    2  2  2  2  2  2  2  2  2  2  2  2  2  2  2  2  2  2  2  2
CENTRE ASSIGNMENTS    2  2  2  2  2  2  2  2  2  2  2  2  2  2
TYPE ASSIGNMENTS      1  1  1  1  1  1  1  2  3  4  2  3  4  2  3  4  2  3  4  5
TYPE ASSIGNMENTS      6  7  8  9 10  5  6  7  8  9 10  5  6  7  8  9 10 11 12 13
TYPE ASSIGNMENTS     17 14 15 18 19 16 20 11 12 13 17 14 15 18 19 16 20  1  1  1
TYPE ASSIGNMENTS      1  1  1  1  2  3  4  2  3  4  2  3  4  2  3  4  5  6  7  8
TYPE ASSIGNMENTS      9 10  5  6  7  8  9 10  5  6  7  8  9 10 11 12 13 17 14 15
TYPE ASSIGNMENTS     18 19 16 20 11 12 13 17 14 15 18 19 16 20
EXPONENTS  0.8264000D+02 0.1241000D+02 0.2824000D+01 0.7977000D+00 0.2581000D+00
EXPONENTS  0.8989000D-01 0.2363000D-01 0.2292000D+01 0.2292000D+01 0.2292000D+01
EXPONENTS  0.8380000D+00 0.8380000D+00 0.8380000D+00 0.2920000D+00 0.2920000D+00
EXPONENTS  0.2920000D+00 0.8480000D-01 0.8480000D-01 0.8480000D-01 0.2062000D+01
EXPONENTS  0.2062000D+01 0.2062000D+01 0.2062000D+01 0.2062000D+01 0.2062000D+01
EXPONENTS  0.6620000D+00 0.6620000D+00 0.6620000D+00 0.6620000D+00 0.6620000D+00
EXPONENTS  0.6620000D+00 0.1900000D+00 0.1900000D+00 0.1900000D+00 0.1900000D+00
EXPONENTS  0.1900000D+00 0.1900000D+00 0.1397000D+01 0.1397000D+01 0.1397000D+01
EXPONENTS  0.1397000D+01 0.1397000D+01 0.1397000D+01 0.1397000D+01 0.1397000D+01
EXPONENTS  0.1397000D+01 0.1397000D+01 0.3600000D+00 0.3600000D+00 0.3600000D+00
EXPONENTS  0.3600000D+00 0.3600000D+00 0.3600000D+00 0.3600000D+00 0.3600000D+00
EXPONENTS  0.3600000D+00 0.3600000D+00 0.8264000D+02 0.1241000D+02 0.2824000D+01
EXPONENTS  0.7977000D+00 0.2581000D+00 0.8989000D-01 0.2363000D-01 0.2292000D+01
EXPONENTS  0.2292000D+01 0.2292000D+01 0.8380000D+00 0.8380000D+00 0.8380000D+00
EXPONENTS  0.2920000D+00 0.2920000D+00 0.2920000D+00 0.8480000D-01 0.8480000D-01
EXPONENTS  0.8480000D-01 0.2062000D+01 0.2062000D+01 0.2062000D+01 0.2062000D+01
EXPONENTS  0.2062000D+01 0.2062000D+01 0.6620000D+00 0.6620000D+00 0.6620000D+00
EXPONENTS  0.6620000D+00 0.6620000D+00 0.6620000D+00 0.1900000D+00 0.1900000D+00
EXPONENTS  0.1900000D+00 0.1900000D+00 0.1900000D+00 0.1900000D+00 0.1397000D+01
EXPONENTS  0.1397000D+01 0.1397000D+01 0.1397000D+01 0.1397000D+01 0.1397000D+01
EXPONENTS  0.1397000D+01 0.1397000D+01 0.1397000D+01 0.1397000D+01 0.3600000D+00
EXPONENTS  0.3600000D+00 0.3600000D+00 0.3600000D+00 0.3600000D+00 0.3600000D+00
EXPONENTS  0.3600000D+00 0.3600000D+00 0.3600000D+00 0.3600000D+00
MO    1     MO 0.0        OCC NO =    1.0000000  ORB. ENERGY =   -0.499948
  0.39213088D-01  0.72351328D-01  0.11742405D+00  0.15418342D+00  0.12889837D+00
  0.34157373D-01  0.17407868D-03 -0.14648201D-16  0.12580801D-15  0.25496567D-05
  0.29275066D-16 -0.69691059D-16 -0.31194238D-05 -0.55427228D-16  0.23292598D-17
  0.22908354D-05  0.13758159D-16  0.12852264D-16 -0.10165601D-05  0.23897393D-06
  0.23897393D-06 -0.47794785D-06  0.59187700D-16 -0.31672283D-15 -0.14452091D-15
 -0.15731200D-06 -0.15731200D-06  0.31462401D-06 -0.30790864D-16  0.28600030D-16
  0.29682638D-16  0.59868283D-07  0.59868283D-07 -0.11973657D-06  0.38142668D-17
  0.10937921D-17 -0.83180661D-17 -0.18576410D-16  0.81264713D-16  0.31154043D-07
  0.79075946D-16 -0.64857762D-16 -0.46731064D-07 -0.23346715D-16 -0.17893638D-15
 -0.46731064D-07 -0.11383769D-15 -0.44396292D-19 -0.17328859D-17 -0.90380414D-08
 -0.10908665D-17  0.17820588D-17  0.13557062D-07  0.12240554D-17  0.34165989D-17
  0.13557062D-07  0.42899972D-17  0.44173806D-06  0.81504255D-06  0.13227897D-05
 -0.60309253D-05  0.15205109D-04 -0.23287761D-04  0.10329336D-04 -0.59849026D-16
  0.49963890D-16  0.39198874D-04 -0.13915573D-16 -0.36744565D-16 -0.47095254D-04
  0.13724484D-16  0.19050217D-16  0.32704870D-04 -0.30703763D-17 -0.12479407D-17
 -0.10568090D-04 -0.76463806D-05 -0.76463806D-05  0.15292761D-04 -0.47693544D-15
 -0.60329031D-15  0.69459215D-15  0.47642658D-05  0.47642658D-05 -0.95285316D-05
  0.38847919D-16  0.68533560D-16 -0.12061152D-15 -0.15379083D-05 -0.15379083D-05
  0.30758165D-05 -0.52354575D-17 -0.86844552D-17  0.10411652D-16 -0.13088302D-18
  0.74767414D-17  0.23468763D-05  0.43627721D-17  0.59787434D-17 -0.35203145D-05
 -0.39701230D-17 -0.28408968D-16 -0.35203145D-05  0.90188646D-17 -0.59884043D-18
  0.69569294D-18 -0.66752073D-06 -0.81293554D-18  0.68974354D-18  0.10012811D-05
  0.26094568D-17 -0.27768223D-17  0.10012811D-05 -0.22720727D-18
END DATA
 TOTAL ENERGY =       -0.499948342496 THE VIRIAL(-V/T)=   2.00027969
