 TITLE
GAUSSIAN              1 MOL ORBITALS    114 PRIMITIVES        2 NUCLEI
  H    1    (CENTRE  1)   0.00000000  0.00000000  0.00000000  CHARGE =  1.0
  H    2    (CENTRE  2)   0.00000000  0.00000000  5.66917837  CHARGE =  0.0
CENTRE ASSIGNMENTS    1  1  1  1  1  1  1  1  1  1  1  1  1  1  1  1  1  1  1  1
CENTRE ASSIGNMENTS    1  1  1  1  1  1  1  1  1  1  1  1  1  1  1  1  1  1  1  1
CENTRE ASSIGNMENTS    1  1  1  1  1  1  1  1  1  1  1  1  1  1  1  1  1  2  2  2
CENTRE ASSIGNMENTS    2  2  2  2  2  2  2  2  2  2  2  2  2  2  2  2  2  2  2  2
CENTRE ASSIGNMENTS    2  2  2  2  2  2  2  2  2  2  2  2  2  2  2  2  2  2  2  2
CENTRE ASSIGNMENTS    2  2  2  2  2  2  2  2  2  2  2  2  2  2
TYPE ASSIGNMENTS      1  1  1  1  1  1  1  2  3  4  2  3  4  2  3  4  2  3  4  5
TYPE ASSIGNMENTS      6  7  8  9 10  5  6  7  8  9 10  5  6  7  8  9 10 11 12 13
TYPE ASSIGNMENTS     17 14 15 18 19 16 20 11 12 13 17 14 15 18 19 16 20  1  1  1
TYPE ASSIGNMENTS      1  1  1  1  2  3  4  2  3  4  2  3  4  2  3  4  5  6  7  8
TYPE ASSIGNMENTS      9 10  5  6  7  8  9 10  5  6  7  8  9 10 11 12 13 17 14 15
TYPE ASSIGNMENTS     18 19 16 20 11 12 13 17 14 15 18 19 16 20
EXPONENTS  0.8264000D+02 0.1241000D+02 0.2824000D+01 0.7977000D+00 0.2581000D+00
EXPONENTS  0.8989000D-01 0.2363000D-01 0.2292000D+01 0.2292000D+01 0.2292000D+01
EXPONENTS  0.8380000D+00 0.8380000D+00 0.8380000D+00 0.2920000D+00 0.2920000D+00
EXPONENTS  0.2920000D+00 0.8480000D-01 0.8480000D-01 0.8480000D-01 0.2062000D+01
EXPONENTS  0.2062000D+01 0.2062000D+01 0.2062000D+01 0.2062000D+01 0.2062000D+01
EXPONENTS  0.6620000D+00 0.6620000D+00 0.6620000D+00 0.6620000D+00 0.6620000D+00
EXPONENTS  0.6620000D+00 0.1900000D+00 0.1900000D+00 0.1900000D+00 0.1900000D+00
EXPONENTS  0.1900000D+00 0.1900000D+00 0.1397000D+01 0.1397000D+01 0.1397000D+01
EXPONENTS  0.1397000D+01 0.1397000D+01 0.1397000D+01 0.1397000D+01 0.1397000D+01
EXPONENTS  0.1397000D+01 0.1397000D+01 0.3600000D+00 0.3600000D+00 0.3600000D+00
EXPONENTS  0.3600000D+00 0.3600000D+00 0.3600000D+00 0.3600000D+00 0.3600000D+00
EXPONENTS  0.3600000D+00 0.3600000D+00 0.8264000D+02 0.1241000D+02 0.2824000D+01
EXPONENTS  0.7977000D+00 0.2581000D+00 0.8989000D-01 0.2363000D-01 0.2292000D+01
EXPONENTS  0.2292000D+01 0.2292000D+01 0.8380000D+00 0.8380000D+00 0.8380000D+00
EXPONENTS  0.2920000D+00 0.2920000D+00 0.2920000D+00 0.8480000D-01 0.8480000D-01
EXPONENTS  0.8480000D-01 0.2062000D+01 0.2062000D+01 0.2062000D+01 0.2062000D+01
EXPONENTS  0.2062000D+01 0.2062000D+01 0.6620000D+00 0.6620000D+00 0.6620000D+00
EXPONENTS  0.6620000D+00 0.6620000D+00 0.6620000D+00 0.1900000D+00 0.1900000D+00
EXPONENTS  0.1900000D+00 0.1900000D+00 0.1900000D+00 0.1900000D+00 0.1397000D+01
EXPONENTS  0.1397000D+01 0.1397000D+01 0.1397000D+01 0.1397000D+01 0.1397000D+01
EXPONENTS  0.1397000D+01 0.1397000D+01 0.1397000D+01 0.1397000D+01 0.3600000D+00
EXPONENTS  0.3600000D+00 0.3600000D+00 0.3600000D+00 0.3600000D+00 0.3600000D+00
EXPONENTS  0.3600000D+00 0.3600000D+00 0.3600000D+00 0.3600000D+00
MO    1     MO 0.0        OCC NO =    1.0000000  ORB. ENERGY =   -0.499949
  0.39209657D-01  0.72344997D-01  0.11741377D+00  0.15421931D+00  0.12884623D+00
  0.34196134D-01  0.18022518D-03  0.54684233D-16 -0.14448572D-15 -0.83097846D-04
 -0.92903813D-17  0.14386352D-15  0.97111487D-04 -0.57951659D-18 -0.18581639D-16
 -0.63397543D-04 -0.11100452D-16 -0.34024127D-17  0.34655792D-04 -0.29040966D-05
 -0.29040966D-05  0.58081932D-05 -0.18400216D-15  0.21818779D-15 -0.53686087D-16
  0.17062974D-05  0.17062974D-05 -0.34125949D-05  0.74102054D-16  0.23332926D-16
  0.28510576D-16 -0.19415958D-05 -0.19415958D-05  0.38831916D-05 -0.73110257D-17
 -0.26984585D-16 -0.20588666D-16 -0.10084345D-15 -0.42853312D-16  0.16703667D-04
  0.55620041D-16 -0.80600997D-16 -0.25055501D-04  0.24691032D-15  0.20916093D-15
 -0.25055501D-04 -0.28748277D-16  0.96773656D-17 -0.43103241D-17 -0.46094681D-05
 -0.15948963D-17  0.90083779D-17  0.69142022D-05 -0.27437200D-16  0.39225945D-17
  0.69142022D-05  0.57844015D-17  0.60640810D-05  0.11188721D-04  0.18158961D-04
 -0.47733067D-04 -0.24651887D-04 -0.39946541D-04  0.73721124D-05  0.19828683D-15
 -0.30467671D-17 -0.11375820D-03 -0.92519245D-16  0.82159525D-16  0.15172294D-03
  0.72359615D-17 -0.57113766D-16 -0.71954468D-05  0.10536168D-16  0.12915927D-16
  0.51023364D-04  0.59235853D-04  0.59235853D-04 -0.11847171D-03  0.12933281D-14
 -0.12729599D-14 -0.12056457D-14 -0.21175352D-04 -0.21175352D-04  0.42350704D-04
 -0.74226780D-16  0.18326132D-15  0.18364562D-15 -0.70584194D-05 -0.70584194D-05
  0.14116839D-04 -0.10526429D-17 -0.19283956D-16 -0.24889503D-16  0.32556394D-16
 -0.96655077D-17  0.10494338D-03  0.43625028D-16  0.11885272D-16 -0.15741508D-03
 -0.14129421D-15  0.17111251D-16 -0.15741508D-03  0.47475311D-16 -0.33051437D-17
  0.26873380D-18 -0.55207023D-04 -0.54163095D-17 -0.98217497D-17  0.82810535D-04
  0.15331741D-16  0.90155483D-17  0.82810535D-04 -0.22082993D-17
END DATA
 TOTAL ENERGY =       -0.499948944157 THE VIRIAL(-V/T)=   2.00027541
