 TITLE
GAUSSIAN              1 MOL ORBITALS     57 PRIMITIVES        1 NUCLEI
  H    1    (CENTRE  1)   0.00000000  0.00000000  0.00000000  CHARGE =  1.0
CENTRE ASSIGNMENTS    1  1  1  1  1  1  1  1  1  1  1  1  1  1  1  1  1  1  1  1
CENTRE ASSIGNMENTS    1  1  1  1  1  1  1  1  1  1  1  1  1  1  1  1  1  1  1  1
CENTRE ASSIGNMENTS    1  1  1  1  1  1  1  1  1  1  1  1  1  1  1  1  1
TYPE ASSIGNMENTS      1  1  1  1  1  1  1  2  3  4  2  3  4  2  3  4  2  3  4  5
TYPE ASSIGNMENTS      6  7  8  9 10  5  6  7  8  9 10  5  6  7  8  9 10 11 12 13
TYPE ASSIGNMENTS     17 14 15 18 19 16 20 11 12 13 17 14 15 18 19 16 20
EXPONENTS  0.8264000D+02 0.1241000D+02 0.2824000D+01 0.7977000D+00 0.2581000D+00
EXPONENTS  0.8989000D-01 0.2363000D-01 0.2292000D+01 0.2292000D+01 0.2292000D+01
EXPONENTS  0.8380000D+00 0.8380000D+00 0.8380000D+00 0.2920000D+00 0.2920000D+00
EXPONENTS  0.2920000D+00 0.8480000D-01 0.8480000D-01 0.8480000D-01 0.2062000D+01
EXPONENTS  0.2062000D+01 0.2062000D+01 0.2062000D+01 0.2062000D+01 0.2062000D+01
EXPONENTS  0.6620000D+00 0.6620000D+00 0.6620000D+00 0.6620000D+00 0.6620000D+00
EXPONENTS  0.6620000D+00 0.1900000D+00 0.1900000D+00 0.1900000D+00 0.1900000D+00
EXPONENTS  0.1900000D+00 0.1900000D+00 0.1397000D+01 0.1397000D+01 0.1397000D+01
EXPONENTS  0.1397000D+01 0.1397000D+01 0.1397000D+01 0.1397000D+01 0.1397000D+01
EXPONENTS  0.1397000D+01 0.1397000D+01 0.3600000D+00 0.3600000D+00 0.3600000D+00
EXPONENTS  0.3600000D+00 0.3600000D+00 0.3600000D+00 0.3600000D+00 0.3600000D+00
EXPONENTS  0.3600000D+00 0.3600000D+00
MO    1     MO 0.0        OCC NO =    1.0000000  ORB. ENERGY =   -0.499948
  0.39213502D-01  0.72352091D-01  0.11742529D+00  0.15417848D+00  0.12890661D+00
  0.34149397D-01  0.17746685D-03 -0.77431014D-15 -0.20097424D-14  0.59961607D-15
  0.39771756D-15  0.34517154D-15 -0.94736902D-15  0.37449729D-16  0.38802989D-16
  0.40685263D-15 -0.11227965D-15 -0.50544240D-16 -0.18382266D-16  0.20571565D-15
 -0.18278963D-15 -0.22926012D-16 -0.17178415D-15  0.21982953D-16 -0.23580565D-15
 -0.15886537D-16  0.11803924D-16  0.40826125D-17 -0.64782821D-17 -0.14896336D-16
  0.22872381D-16  0.17139795D-17 -0.13752993D-17 -0.33868019D-18  0.95255068D-17
  0.18734237D-16 -0.59920011D-17  0.49583028D-16  0.18791741D-15  0.12464200D-15
 -0.61366213D-15 -0.22819198D-15 -0.86648560D-15  0.46491305D-15 -0.33556024D-15
  0.49255959D-15 -0.10161789D-14  0.23800848D-16 -0.41409099D-16 -0.98598929D-16
  0.28931448D-16  0.73969935D-16  0.40116511D-15 -0.10033399D-15  0.50257362D-16
 -0.10536832D-15 -0.25600157D-15
END DATA
 TOTAL ENERGY =       -0.499948321469 THE VIRIAL(-V/T)=   2.00028101
