 TITLE
GAUSSIAN              1 MOL ORBITALS     54 PRIMITIVES        2 NUCLEI
  H    1    (CENTRE  1)   0.00000000  0.00000000  0.00000000  CHARGE =  1.0
  H    2    (CENTRE  2)   0.00000000  0.00000000  8.31479495  CHARGE =  0.0
CENTRE ASSIGNMENTS    1  1  1  1  1  1  1  1  1  1  1  1  1  1  1  1  1  1  1  1
CENTRE ASSIGNMENTS    1  1  1  1  1  1  1  2  2  2  2  2  2  2  2  2  2  2  2  2
CENTRE ASSIGNMENTS    2  2  2  2  2  2  2  2  2  2  2  2  2  2
TYPE ASSIGNMENTS      1  1  1  1  1  1  2  3  4  2  3  4  2  3  4  5  6  7  8  9
TYPE ASSIGNMENTS     10  5  6  7  8  9 10  1  1  1  1  1  1  2  3  4  2  3  4  2
TYPE ASSIGNMENTS      3  4  5  6  7  8  9 10  5  6  7  8  9 10
EXPONENTS  0.3387000D+02 0.5095000D+01 0.1159000D+01 0.3258000D+00 0.1027000D+00
EXPONENTS  0.2526000D-01 0.1407000D+01 0.1407000D+01 0.1407000D+01 0.3880000D+00
EXPONENTS  0.3880000D+00 0.3880000D+00 0.1020000D+00 0.1020000D+00 0.1020000D+00
EXPONENTS  0.1057000D+01 0.1057000D+01 0.1057000D+01 0.1057000D+01 0.1057000D+01
EXPONENTS  0.1057000D+01 0.2470000D+00 0.2470000D+00 0.2470000D+00 0.2470000D+00
EXPONENTS  0.2470000D+00 0.2470000D+00 0.3387000D+02 0.5095000D+01 0.1159000D+01
EXPONENTS  0.3258000D+00 0.1027000D+00 0.2526000D-01 0.1407000D+01 0.1407000D+01
EXPONENTS  0.1407000D+01 0.3880000D+00 0.3880000D+00 0.3880000D+00 0.1020000D+00
EXPONENTS  0.1020000D+00 0.1020000D+00 0.1057000D+01 0.1057000D+01 0.1057000D+01
EXPONENTS  0.1057000D+01 0.1057000D+01 0.1057000D+01 0.2470000D+00 0.2470000D+00
EXPONENTS  0.2470000D+00 0.2470000D+00 0.2470000D+00 0.2470000D+00
MO    1     MO 0.0        OCC NO =    1.0000000  ORB. ENERGY =   -0.499821
  0.60613726D-01  0.10931935D+00  0.16119132D+00  0.15558992D+00  0.48718294D-01
  0.34236711D-03 -0.18639676D-16 -0.80404423D-17 -0.13016751D-04 -0.36577111D-17
 -0.92763969D-17  0.13058074D-04  0.31762753D-17 -0.57742388D-17 -0.67155987D-05
 -0.78993609D-06 -0.78993609D-06  0.15798722D-05 -0.14444453D-17 -0.61095039D-18
 -0.16254950D-16  0.30645736D-06  0.30645736D-06 -0.61291471D-06  0.35412647D-18
 -0.15208474D-17  0.20483951D-17 -0.33828776D-05 -0.61011591D-05 -0.89961555D-05
 -0.96997970D-05  0.51788089D-04  0.63477701D-05 -0.18813534D-15  0.65993189D-16
  0.87004945D-04  0.34679620D-16 -0.17216809D-16 -0.72839843D-04 -0.21115423D-17
  0.48406950D-18 -0.22009012D-04 -0.12899871D-04 -0.12899871D-04  0.25799742D-04
  0.29499241D-16  0.37249704D-16 -0.54479033D-16 -0.71484392D-06 -0.71484392D-06
  0.14296878D-05 -0.63524702D-18 -0.25724378D-17  0.24522445D-17
END DATA
 TOTAL ENERGY =       -0.499821374606 THE VIRIAL(-V/T)=   2.00102964
