 TITLE
GAUSSIAN              1 MOL ORBITALS     54 PRIMITIVES        2 NUCLEI
  H    1    (CENTRE  1)   0.00000000  0.00000000  0.00000000  CHARGE =  1.0
  H    2    (CENTRE  2)   0.00000000  0.00000000  4.72431531  CHARGE =  0.0
CENTRE ASSIGNMENTS    1  1  1  1  1  1  1  1  1  1  1  1  1  1  1  1  1  1  1  1
CENTRE ASSIGNMENTS    1  1  1  1  1  1  1  2  2  2  2  2  2  2  2  2  2  2  2  2
CENTRE ASSIGNMENTS    2  2  2  2  2  2  2  2  2  2  2  2  2  2
TYPE ASSIGNMENTS      1  1  1  1  1  1  2  3  4  2  3  4  2  3  4  5  6  7  8  9
TYPE ASSIGNMENTS     10  5  6  7  8  9 10  1  1  1  1  1  1  2  3  4  2  3  4  2
TYPE ASSIGNMENTS      3  4  5  6  7  8  9 10  5  6  7  8  9 10
EXPONENTS  0.3387000D+02 0.5095000D+01 0.1159000D+01 0.3258000D+00 0.1027000D+00
EXPONENTS  0.2526000D-01 0.1407000D+01 0.1407000D+01 0.1407000D+01 0.3880000D+00
EXPONENTS  0.3880000D+00 0.3880000D+00 0.1020000D+00 0.1020000D+00 0.1020000D+00
EXPONENTS  0.1057000D+01 0.1057000D+01 0.1057000D+01 0.1057000D+01 0.1057000D+01
EXPONENTS  0.1057000D+01 0.2470000D+00 0.2470000D+00 0.2470000D+00 0.2470000D+00
EXPONENTS  0.2470000D+00 0.2470000D+00 0.3387000D+02 0.5095000D+01 0.1159000D+01
EXPONENTS  0.3258000D+00 0.1027000D+00 0.2526000D-01 0.1407000D+01 0.1407000D+01
EXPONENTS  0.1407000D+01 0.3880000D+00 0.3880000D+00 0.3880000D+00 0.1020000D+00
EXPONENTS  0.1020000D+00 0.1020000D+00 0.1057000D+01 0.1057000D+01 0.1057000D+01
EXPONENTS  0.1057000D+01 0.1057000D+01 0.1057000D+01 0.2470000D+00 0.2470000D+00
EXPONENTS  0.2470000D+00 0.2470000D+00 0.2470000D+00 0.2470000D+00
MO    1     MO 0.0        OCC NO =    1.0000000  ORB. ENERGY =   -0.499823
  0.60629673D-01  0.10934811D+00  0.16123373D+00  0.15545540D+00  0.48876874D-01
  0.37128134D-03 -0.65914087D-16 -0.40287934D-16  0.13325995D-03  0.29213753D-16
  0.11372756D-16 -0.13522972D-03 -0.90434901D-17  0.76556544D-18  0.13014829D-03
  0.24019658D-04  0.24019658D-04 -0.48039316D-04 -0.90217062D-17 -0.25011473D-16
  0.40708425D-17 -0.14974009D-04 -0.14974009D-04  0.29948017D-04  0.53420951D-18
  0.20598946D-17  0.39563619D-17 -0.23832064D-04 -0.42982108D-04 -0.63377093D-04
 -0.70564039D-04 -0.17229527D-03  0.26345141D-05 -0.35598884D-15  0.49969707D-16
  0.28130302D-03  0.39495328D-16 -0.16384278D-16 -0.13921242D-03  0.25841256D-17
  0.13974675D-17  0.18046095D-03 -0.82662145D-04 -0.82662145D-04  0.16532429D-03
 -0.19013463D-16 -0.17587568D-15 -0.65435142D-16 -0.39381315D-04 -0.39381315D-04
  0.78762630D-04 -0.66253560D-18 -0.20663609D-17  0.11714524D-17
END DATA
 TOTAL ENERGY =       -0.499823296624 THE VIRIAL(-V/T)=   2.00099405
