 TITLE
GAUSSIAN              1 MOL ORBITALS     54 PRIMITIVES        2 NUCLEI
  H    1    (CENTRE  1)   0.00000000  0.00000000  0.00000000  CHARGE =  1.0
  H    2    (CENTRE  2)   0.00000000  0.00000000 13.03911026  CHARGE =  0.0
CENTRE ASSIGNMENTS    1  1  1  1  1  1  1  1  1  1  1  1  1  1  1  1  1  1  1  1
CENTRE ASSIGNMENTS    1  1  1  1  1  1  1  2  2  2  2  2  2  2  2  2  2  2  2  2
CENTRE ASSIGNMENTS    2  2  2  2  2  2  2  2  2  2  2  2  2  2
TYPE ASSIGNMENTS      1  1  1  1  1  1  2  3  4  2  3  4  2  3  4  5  6  7  8  9
TYPE ASSIGNMENTS     10  5  6  7  8  9 10  1  1  1  1  1  1  2  3  4  2  3  4  2
TYPE ASSIGNMENTS      3  4  5  6  7  8  9 10  5  6  7  8  9 10
EXPONENTS  0.3387000D+02 0.5095000D+01 0.1159000D+01 0.3258000D+00 0.1027000D+00
EXPONENTS  0.2526000D-01 0.1407000D+01 0.1407000D+01 0.1407000D+01 0.3880000D+00
EXPONENTS  0.3880000D+00 0.3880000D+00 0.1020000D+00 0.1020000D+00 0.1020000D+00
EXPONENTS  0.1057000D+01 0.1057000D+01 0.1057000D+01 0.1057000D+01 0.1057000D+01
EXPONENTS  0.1057000D+01 0.2470000D+00 0.2470000D+00 0.2470000D+00 0.2470000D+00
EXPONENTS  0.2470000D+00 0.2470000D+00 0.3387000D+02 0.5095000D+01 0.1159000D+01
EXPONENTS  0.3258000D+00 0.1027000D+00 0.2526000D-01 0.1407000D+01 0.1407000D+01
EXPONENTS  0.1407000D+01 0.3880000D+00 0.3880000D+00 0.3880000D+00 0.1020000D+00
EXPONENTS  0.1020000D+00 0.1020000D+00 0.1057000D+01 0.1057000D+01 0.1057000D+01
EXPONENTS  0.1057000D+01 0.1057000D+01 0.1057000D+01 0.2470000D+00 0.2470000D+00
EXPONENTS  0.2470000D+00 0.2470000D+00 0.2470000D+00 0.2470000D+00
MO    1     MO 0.0        OCC NO =    1.0000000  ORB. ENERGY =   -0.499821
  0.60611829D-01  0.10931593D+00  0.16118627D+00  0.15560784D+00  0.48694862D-01
  0.35472759D-03  0.16946948D-16 -0.59303217D-16 -0.79257919D-06 -0.84742598D-17
  0.49527007D-16  0.80923172D-06  0.13707455D-17 -0.82476106D-17 -0.45372066D-06
 -0.54277141D-07 -0.54277141D-07  0.10855428D-06 -0.99490068D-18 -0.17587604D-16
 -0.11306236D-16  0.24980692D-07  0.24980692D-07 -0.49961384D-07 -0.31796075D-20
  0.50261252D-17  0.21403258D-17 -0.37916593D-05 -0.68384137D-05 -0.10083237D-04
  0.33685395D-04 -0.35149976D-04  0.93528170D-05  0.22737827D-15  0.11791303D-15
 -0.18141431D-05 -0.26703824D-16 -0.64152522D-17  0.60044763D-06  0.10471258D-17
  0.21424283D-17  0.22581744D-05 -0.13098297D-05 -0.13098297D-05  0.26196594D-05
 -0.14910974D-20 -0.73610671D-15 -0.84764330D-15  0.68800798D-06  0.68800798D-06
 -0.13760160D-05  0.14642536D-18  0.22361995D-16  0.24602851D-16
END DATA
 TOTAL ENERGY =       -0.499821188132 THE VIRIAL(-V/T)=   2.00103108
