 TITLE
GAUSSIAN              1 MOL ORBITALS     54 PRIMITIVES        2 NUCLEI
  H    1    (CENTRE  1)   0.00000000  0.00000000  0.00000000  CHARGE =  1.0
  H    2    (CENTRE  2)   0.00000000  0.00000000  6.23609621  CHARGE =  0.0
CENTRE ASSIGNMENTS    1  1  1  1  1  1  1  1  1  1  1  1  1  1  1  1  1  1  1  1
CENTRE ASSIGNMENTS    1  1  1  1  1  1  1  2  2  2  2  2  2  2  2  2  2  2  2  2
CENTRE ASSIGNMENTS    2  2  2  2  2  2  2  2  2  2  2  2  2  2
TYPE ASSIGNMENTS      1  1  1  1  1  1  2  3  4  2  3  4  2  3  4  5  6  7  8  9
TYPE ASSIGNMENTS     10  5  6  7  8  9 10  1  1  1  1  1  1  2  3  4  2  3  4  2
TYPE ASSIGNMENTS      3  4  5  6  7  8  9 10  5  6  7  8  9 10
EXPONENTS  0.3387000D+02 0.5095000D+01 0.1159000D+01 0.3258000D+00 0.1027000D+00
EXPONENTS  0.2526000D-01 0.1407000D+01 0.1407000D+01 0.1407000D+01 0.3880000D+00
EXPONENTS  0.3880000D+00 0.3880000D+00 0.1020000D+00 0.1020000D+00 0.1020000D+00
EXPONENTS  0.1057000D+01 0.1057000D+01 0.1057000D+01 0.1057000D+01 0.1057000D+01
EXPONENTS  0.1057000D+01 0.2470000D+00 0.2470000D+00 0.2470000D+00 0.2470000D+00
EXPONENTS  0.2470000D+00 0.2470000D+00 0.3387000D+02 0.5095000D+01 0.1159000D+01
EXPONENTS  0.3258000D+00 0.1027000D+00 0.2526000D-01 0.1407000D+01 0.1407000D+01
EXPONENTS  0.1407000D+01 0.3880000D+00 0.3880000D+00 0.3880000D+00 0.1020000D+00
EXPONENTS  0.1020000D+00 0.1020000D+00 0.1057000D+01 0.1057000D+01 0.1057000D+01
EXPONENTS  0.1057000D+01 0.1057000D+01 0.1057000D+01 0.2470000D+00 0.2470000D+00
EXPONENTS  0.2470000D+00 0.2470000D+00 0.2470000D+00 0.2470000D+00
MO    1     MO 0.0        OCC NO =    1.0000000  ORB. ENERGY =   -0.499823
  0.60625870D-01  0.10934125D+00  0.16122361D+00  0.15549522D+00  0.48773861D-01
  0.35836563D-03 -0.10590343D-15 -0.12086925D-15  0.11092861D-03  0.27001958D-17
  0.23671544D-17 -0.11976808D-03  0.70449421D-17  0.34646455D-17  0.70553484D-04
  0.31828394D-04  0.31828394D-04 -0.63656788D-04  0.67983376D-17  0.28809910D-16
  0.99341195D-16 -0.15234935D-04 -0.15234935D-04  0.30469871D-04  0.90561866D-18
  0.54187253D-17 -0.13086521D-16  0.12632115D-05  0.22782540D-05  0.33592842D-05
  0.12114996D-03 -0.63910028D-04  0.45964507D-05  0.22726676D-15  0.24868567D-15
 -0.14057928D-03 -0.12401734D-16 -0.36988998D-16  0.88237964D-04 -0.21538860D-17
  0.68975257D-17  0.93136025D-04 -0.48938078D-04 -0.48938078D-04  0.97876157D-04
 -0.23387814D-17  0.41316421D-15  0.32659373D-15  0.60712507D-04  0.60712507D-04
 -0.12142501D-03  0.92725687D-18 -0.51271268D-17 -0.17812831D-16
END DATA
 TOTAL ENERGY =       -0.499822534207 THE VIRIAL(-V/T)=   2.00101317
