 TITLE
GAUSSIAN              1 MOL ORBITALS     54 PRIMITIVES        2 NUCLEI
  H    1    (CENTRE  1)   0.00000000  0.00000000  0.00000000  CHARGE =  1.0
  H    2    (CENTRE  2)   0.00000000  0.00000000  2.26767135  CHARGE =  0.0
CENTRE ASSIGNMENTS    1  1  1  1  1  1  1  1  1  1  1  1  1  1  1  1  1  1  1  1
CENTRE ASSIGNMENTS    1  1  1  1  1  1  1  2  2  2  2  2  2  2  2  2  2  2  2  2
CENTRE ASSIGNMENTS    2  2  2  2  2  2  2  2  2  2  2  2  2  2
TYPE ASSIGNMENTS      1  1  1  1  1  1  2  3  4  2  3  4  2  3  4  5  6  7  8  9
TYPE ASSIGNMENTS     10  5  6  7  8  9 10  1  1  1  1  1  1  2  3  4  2  3  4  2
TYPE ASSIGNMENTS      3  4  5  6  7  8  9 10  5  6  7  8  9 10
EXPONENTS  0.3387000D+02 0.5095000D+01 0.1159000D+01 0.3258000D+00 0.1027000D+00
EXPONENTS  0.2526000D-01 0.1407000D+01 0.1407000D+01 0.1407000D+01 0.3880000D+00
EXPONENTS  0.3880000D+00 0.3880000D+00 0.1020000D+00 0.1020000D+00 0.1020000D+00
EXPONENTS  0.1057000D+01 0.1057000D+01 0.1057000D+01 0.1057000D+01 0.1057000D+01
EXPONENTS  0.1057000D+01 0.2470000D+00 0.2470000D+00 0.2470000D+00 0.2470000D+00
EXPONENTS  0.2470000D+00 0.2470000D+00 0.3387000D+02 0.5095000D+01 0.1159000D+01
EXPONENTS  0.3258000D+00 0.1027000D+00 0.2526000D-01 0.1407000D+01 0.1407000D+01
EXPONENTS  0.1407000D+01 0.3880000D+00 0.3880000D+00 0.3880000D+00 0.1020000D+00
EXPONENTS  0.1020000D+00 0.1020000D+00 0.1057000D+01 0.1057000D+01 0.1057000D+01
EXPONENTS  0.1057000D+01 0.1057000D+01 0.1057000D+01 0.2470000D+00 0.2470000D+00
EXPONENTS  0.2470000D+00 0.2470000D+00 0.2470000D+00 0.2470000D+00
MO    1     MO 0.0        OCC NO =    1.0000000  ORB. ENERGY =   -0.499828
  0.60618052D-01  0.10932715D+00  0.16120282D+00  0.15655311D+00  0.55358325D-01
  0.46991402D-03 -0.52051530D-17  0.59420331D-16 -0.22605776D-03 -0.29310124D-15
 -0.31768954D-16  0.10016905D-02 -0.10252852D-15 -0.38793820D-16  0.16467619D-02
  0.59068759D-04  0.59068759D-04 -0.11813752D-03 -0.43464378D-16  0.60010385D-16
  0.64213220D-15 -0.75111124D-04 -0.75111124D-04  0.15022225D-03  0.67858667D-17
 -0.97801436D-16 -0.42469921D-16 -0.12424050D-03 -0.22407285D-03 -0.33039529D-03
  0.69031700D-03 -0.72419381D-02 -0.50305528D-04 -0.15712182D-15 -0.20249276D-15
 -0.58355160D-03 -0.65182690D-16 -0.21167980D-16  0.13626836D-02 -0.30718422D-16
  0.19948715D-16  0.17310125D-02 -0.42774197D-03 -0.42774197D-03  0.85548394D-03
 -0.81411747D-16  0.22552559D-15  0.73681803D-15  0.28473547D-03  0.28473547D-03
 -0.56947094D-03  0.12817906D-17 -0.36311528D-17 -0.27528122D-16
END DATA
 TOTAL ENERGY =       -0.499828229747 THE VIRIAL(-V/T)=   2.00096286
