 TITLE
GAUSSIAN              1 MOL ORBITALS     54 PRIMITIVES        2 NUCLEI
  H    1    (CENTRE  1)   0.00000000  0.00000000  0.00000000  CHARGE =  1.0
  H    2    (CENTRE  2)   0.00000000  0.00000000  7.74787711  CHARGE =  0.0
CENTRE ASSIGNMENTS    1  1  1  1  1  1  1  1  1  1  1  1  1  1  1  1  1  1  1  1
CENTRE ASSIGNMENTS    1  1  1  1  1  1  1  2  2  2  2  2  2  2  2  2  2  2  2  2
CENTRE ASSIGNMENTS    2  2  2  2  2  2  2  2  2  2  2  2  2  2
TYPE ASSIGNMENTS      1  1  1  1  1  1  2  3  4  2  3  4  2  3  4  5  6  7  8  9
TYPE ASSIGNMENTS     10  5  6  7  8  9 10  1  1  1  1  1  1  2  3  4  2  3  4  2
TYPE ASSIGNMENTS      3  4  5  6  7  8  9 10  5  6  7  8  9 10
EXPONENTS  0.3387000D+02 0.5095000D+01 0.1159000D+01 0.3258000D+00 0.1027000D+00
EXPONENTS  0.2526000D-01 0.1407000D+01 0.1407000D+01 0.1407000D+01 0.3880000D+00
EXPONENTS  0.3880000D+00 0.3880000D+00 0.1020000D+00 0.1020000D+00 0.1020000D+00
EXPONENTS  0.1057000D+01 0.1057000D+01 0.1057000D+01 0.1057000D+01 0.1057000D+01
EXPONENTS  0.1057000D+01 0.2470000D+00 0.2470000D+00 0.2470000D+00 0.2470000D+00
EXPONENTS  0.2470000D+00 0.2470000D+00 0.3387000D+02 0.5095000D+01 0.1159000D+01
EXPONENTS  0.3258000D+00 0.1027000D+00 0.2526000D-01 0.1407000D+01 0.1407000D+01
EXPONENTS  0.1407000D+01 0.3880000D+00 0.3880000D+00 0.3880000D+00 0.1020000D+00
EXPONENTS  0.1020000D+00 0.1020000D+00 0.1057000D+01 0.1057000D+01 0.1057000D+01
EXPONENTS  0.1057000D+01 0.1057000D+01 0.1057000D+01 0.2470000D+00 0.2470000D+00
EXPONENTS  0.2470000D+00 0.2470000D+00 0.2470000D+00 0.2470000D+00
MO    1     MO 0.0        OCC NO =    1.0000000  ORB. ENERGY =   -0.499821
  0.60614039D-01  0.10931992D+00  0.16119215D+00  0.15559030D+00  0.48713222D-01
  0.34665293D-03  0.51630441D-16  0.18452029D-16  0.24795581D-05 -0.21678407D-17
  0.83925958D-16 -0.21195487D-05 -0.19845324D-17  0.17650294D-16  0.46270377D-06
  0.28180107D-06  0.28180107D-06 -0.56360214D-06 -0.52675846D-19  0.95830015D-17
 -0.39984153D-17 -0.97616884D-07 -0.97616884D-07  0.19523377D-06  0.43205648D-18
 -0.20943853D-17  0.34059403D-17 -0.11896497D-04 -0.21455822D-04 -0.31636597D-04
  0.68635337D-04  0.26451106D-04  0.69587489D-05 -0.17471724D-16 -0.19142690D-15
  0.12147065D-03  0.15799711D-16  0.57113231D-16 -0.13293145D-03 -0.35723488D-17
  0.12925414D-16  0.88758268D-05 -0.61972668D-04 -0.61972668D-04  0.12394534D-03
 -0.39605329D-16 -0.81181862D-16 -0.27745478D-15  0.21919457D-04  0.21919457D-04
 -0.43838915D-04  0.10812655D-17  0.44115390D-17  0.63116881D-17
END DATA
 TOTAL ENERGY =       -0.499821480405 THE VIRIAL(-V/T)=   2.00102427
