 TITLE
GAUSSIAN              1 MOL ORBITALS     54 PRIMITIVES        2 NUCLEI
  H    1    (CENTRE  1)   0.00000000  0.00000000  0.00000000  CHARGE =  1.0
  H    2    (CENTRE  2)   0.00000000  0.00000000 12.66116503  CHARGE =  0.0
CENTRE ASSIGNMENTS    1  1  1  1  1  1  1  1  1  1  1  1  1  1  1  1  1  1  1  1
CENTRE ASSIGNMENTS    1  1  1  1  1  1  1  2  2  2  2  2  2  2  2  2  2  2  2  2
CENTRE ASSIGNMENTS    2  2  2  2  2  2  2  2  2  2  2  2  2  2
TYPE ASSIGNMENTS      1  1  1  1  1  1  2  3  4  2  3  4  2  3  4  5  6  7  8  9
TYPE ASSIGNMENTS     10  5  6  7  8  9 10  1  1  1  1  1  1  2  3  4  2  3  4  2
TYPE ASSIGNMENTS      3  4  5  6  7  8  9 10  5  6  7  8  9 10
EXPONENTS  0.3387000D+02 0.5095000D+01 0.1159000D+01 0.3258000D+00 0.1027000D+00
EXPONENTS  0.2526000D-01 0.1407000D+01 0.1407000D+01 0.1407000D+01 0.3880000D+00
EXPONENTS  0.3880000D+00 0.3880000D+00 0.1020000D+00 0.1020000D+00 0.1020000D+00
EXPONENTS  0.1057000D+01 0.1057000D+01 0.1057000D+01 0.1057000D+01 0.1057000D+01
EXPONENTS  0.1057000D+01 0.2470000D+00 0.2470000D+00 0.2470000D+00 0.2470000D+00
EXPONENTS  0.2470000D+00 0.2470000D+00 0.3387000D+02 0.5095000D+01 0.1159000D+01
EXPONENTS  0.3258000D+00 0.1027000D+00 0.2526000D-01 0.1407000D+01 0.1407000D+01
EXPONENTS  0.1407000D+01 0.3880000D+00 0.3880000D+00 0.3880000D+00 0.1020000D+00
EXPONENTS  0.1020000D+00 0.1020000D+00 0.1057000D+01 0.1057000D+01 0.1057000D+01
EXPONENTS  0.1057000D+01 0.1057000D+01 0.1057000D+01 0.2470000D+00 0.2470000D+00
EXPONENTS  0.2470000D+00 0.2470000D+00 0.2470000D+00 0.2470000D+00
MO    1     MO 0.0        OCC NO =    1.0000000  ORB. ENERGY =   -0.499821
  0.60611934D-01  0.10931612D+00  0.16118655D+00  0.15560697D+00  0.48695953D-01
  0.35416889D-03  0.13684478D-15  0.93062642D-16 -0.11200414D-05  0.11572215D-16
 -0.27558280D-17  0.11464462D-05 -0.50927988D-17  0.20635674D-17 -0.64785353D-06
 -0.78504298D-07 -0.78504298D-07  0.15700860D-06  0.79832632D-17 -0.63825006D-17
 -0.10158243D-17  0.36438593D-07  0.36438593D-07 -0.72877187D-07 -0.57062068D-18
 -0.28233951D-18  0.14167882D-17 -0.38412133D-05 -0.69277863D-05 -0.10215017D-04
  0.35217190D-04 -0.39040918D-04  0.11120342D-04 -0.92061383D-16 -0.28797238D-15
 -0.91561181D-05  0.31081216D-16  0.50783589D-16  0.75557657D-05 -0.52285179D-17
 -0.93685609D-17 -0.35148353D-06 -0.71977744D-06 -0.71977744D-06  0.14395549D-05
 -0.80086601D-16 -0.66765527D-16 -0.21222038D-15  0.46316072D-06  0.46316072D-06
 -0.92632143D-06  0.25499888D-17  0.94776897D-18  0.63793357D-17
END DATA
 TOTAL ENERGY =       -0.499821191368 THE VIRIAL(-V/T)=   2.00103063
