 TITLE
GAUSSIAN              1 MOL ORBITALS     54 PRIMITIVES        2 NUCLEI
  H    1    (CENTRE  1)   0.00000000  0.00000000  0.00000000  CHARGE =  1.0
  H    2    (CENTRE  2)   0.00000000  0.00000000  6.04712360  CHARGE =  0.0
CENTRE ASSIGNMENTS    1  1  1  1  1  1  1  1  1  1  1  1  1  1  1  1  1  1  1  1
CENTRE ASSIGNMENTS    1  1  1  1  1  1  1  2  2  2  2  2  2  2  2  2  2  2  2  2
CENTRE ASSIGNMENTS    2  2  2  2  2  2  2  2  2  2  2  2  2  2
TYPE ASSIGNMENTS      1  1  1  1  1  1  2  3  4  2  3  4  2  3  4  5  6  7  8  9
TYPE ASSIGNMENTS     10  5  6  7  8  9 10  1  1  1  1  1  1  2  3  4  2  3  4  2
TYPE ASSIGNMENTS      3  4  5  6  7  8  9 10  5  6  7  8  9 10
EXPONENTS  0.3387000D+02 0.5095000D+01 0.1159000D+01 0.3258000D+00 0.1027000D+00
EXPONENTS  0.2526000D-01 0.1407000D+01 0.1407000D+01 0.1407000D+01 0.3880000D+00
EXPONENTS  0.3880000D+00 0.3880000D+00 0.1020000D+00 0.1020000D+00 0.1020000D+00
EXPONENTS  0.1057000D+01 0.1057000D+01 0.1057000D+01 0.1057000D+01 0.1057000D+01
EXPONENTS  0.1057000D+01 0.2470000D+00 0.2470000D+00 0.2470000D+00 0.2470000D+00
EXPONENTS  0.2470000D+00 0.2470000D+00 0.3387000D+02 0.5095000D+01 0.1159000D+01
EXPONENTS  0.3258000D+00 0.1027000D+00 0.2526000D-01 0.1407000D+01 0.1407000D+01
EXPONENTS  0.1407000D+01 0.3880000D+00 0.3880000D+00 0.3880000D+00 0.1020000D+00
EXPONENTS  0.1020000D+00 0.1020000D+00 0.1057000D+01 0.1057000D+01 0.1057000D+01
EXPONENTS  0.1057000D+01 0.1057000D+01 0.1057000D+01 0.2470000D+00 0.2470000D+00
EXPONENTS  0.2470000D+00 0.2470000D+00 0.2470000D+00 0.2470000D+00
MO    1     MO 0.0        OCC NO =    1.0000000  ORB. ENERGY =   -0.499823
  0.60627314D-01  0.10934386D+00  0.16122745D+00  0.15548046D+00  0.48787811D-01
  0.35936066D-03  0.13992365D-15 -0.16171325D-15  0.11715920D-03 -0.25204038D-16
  0.26534527D-16 -0.12878431D-03  0.12549983D-17 -0.59988993D-17  0.80224202D-04
  0.37128610D-04  0.37128610D-04 -0.74257219D-04  0.14194281D-17 -0.50971768D-16
  0.43579493D-16 -0.18160485D-04 -0.18160485D-04  0.36320969D-04 -0.28008519D-18
  0.50229750D-17 -0.16959477D-16  0.53337272D-05  0.96195967D-05  0.14184090D-04
  0.90665331D-04 -0.70849857D-04  0.38110798D-05 -0.27930099D-16  0.21175429D-15
 -0.15035053D-03  0.36780738D-17 -0.37090395D-16  0.13204233D-03  0.15952341D-17
  0.10586739D-16  0.10173866D-03 -0.20397963D-04 -0.20397963D-04  0.40795925D-04
 -0.33697762D-15 -0.18417009D-15  0.39661159D-15  0.53815109D-04  0.53815109D-04
 -0.10763022D-03  0.10013187D-16  0.38883385D-17 -0.49756599D-17
END DATA
 TOTAL ENERGY =       -0.499822536331 THE VIRIAL(-V/T)=   2.00101265
