 TITLE
GAUSSIAN              1 MOL ORBITALS     54 PRIMITIVES        2 NUCLEI
  H    1    (CENTRE  1)   0.00000000  0.00000000  0.00000000  CHARGE =  1.0
  H    2    (CENTRE  2)   0.00000000  0.00000000  5.10226054  CHARGE =  0.0
CENTRE ASSIGNMENTS    1  1  1  1  1  1  1  1  1  1  1  1  1  1  1  1  1  1  1  1
CENTRE ASSIGNMENTS    1  1  1  1  1  1  1  2  2  2  2  2  2  2  2  2  2  2  2  2
CENTRE ASSIGNMENTS    2  2  2  2  2  2  2  2  2  2  2  2  2  2
TYPE ASSIGNMENTS      1  1  1  1  1  1  2  3  4  2  3  4  2  3  4  5  6  7  8  9
TYPE ASSIGNMENTS     10  5  6  7  8  9 10  1  1  1  1  1  1  2  3  4  2  3  4  2
TYPE ASSIGNMENTS      3  4  5  6  7  8  9 10  5  6  7  8  9 10
EXPONENTS  0.3387000D+02 0.5095000D+01 0.1159000D+01 0.3258000D+00 0.1027000D+00
EXPONENTS  0.2526000D-01 0.1407000D+01 0.1407000D+01 0.1407000D+01 0.3880000D+00
EXPONENTS  0.3880000D+00 0.3880000D+00 0.1020000D+00 0.1020000D+00 0.1020000D+00
EXPONENTS  0.1057000D+01 0.1057000D+01 0.1057000D+01 0.1057000D+01 0.1057000D+01
EXPONENTS  0.1057000D+01 0.2470000D+00 0.2470000D+00 0.2470000D+00 0.2470000D+00
EXPONENTS  0.2470000D+00 0.2470000D+00 0.3387000D+02 0.5095000D+01 0.1159000D+01
EXPONENTS  0.3258000D+00 0.1027000D+00 0.2526000D-01 0.1407000D+01 0.1407000D+01
EXPONENTS  0.1407000D+01 0.3880000D+00 0.3880000D+00 0.3880000D+00 0.1020000D+00
EXPONENTS  0.1020000D+00 0.1020000D+00 0.1057000D+01 0.1057000D+01 0.1057000D+01
EXPONENTS  0.1057000D+01 0.1057000D+01 0.1057000D+01 0.2470000D+00 0.2470000D+00
EXPONENTS  0.2470000D+00 0.2470000D+00 0.2470000D+00 0.2470000D+00
MO    1     MO 0.0        OCC NO =    1.0000000  ORB. ENERGY =   -0.499823
  0.60628770D-01  0.10934648D+00  0.16123132D+00  0.15545790D+00  0.48844307D-01
  0.36699671D-03 -0.40534425D-16 -0.22118921D-16  0.11802337D-03  0.34140327D-16
  0.99016373D-17 -0.12926146D-03 -0.10574715D-16  0.12133893D-17  0.11405120D-03
  0.36874605D-04  0.36874605D-04 -0.73749210D-04 -0.11523892D-16 -0.18000556D-16
  0.29646900D-16 -0.21101167D-04 -0.21101167D-04  0.42202334D-04  0.59633177D-18
 -0.31054308D-18  0.70547935D-19 -0.55420701D-05 -0.99953517D-05 -0.14738140D-04
 -0.73901584D-04 -0.11688156D-03  0.18165617D-05 -0.12013399D-15  0.37345856D-15
  0.16784886D-03 -0.54298101D-17 -0.35353155D-16  0.52932390D-04  0.73002789D-17
 -0.19163785D-17  0.15126728D-03  0.10806297D-04  0.10806297D-04 -0.21612594D-04
  0.27223075D-15 -0.36707949D-16  0.15578115D-15 -0.15115950D-04 -0.15115950D-04
  0.30231899D-04 -0.81810118D-17  0.74772391D-18 -0.55478381D-18
END DATA
 TOTAL ENERGY =       -0.499822692479 THE VIRIAL(-V/T)=   2.00100102
