 TITLE
GAUSSIAN              1 MOL ORBITALS     54 PRIMITIVES        2 NUCLEI
  H    1    (CENTRE  1)   0.00000000  0.00000000  0.00000000  CHARGE =  1.0
  H    2    (CENTRE  2)   0.00000000  0.00000000  1.32280829  CHARGE =  0.0
CENTRE ASSIGNMENTS    1  1  1  1  1  1  1  1  1  1  1  1  1  1  1  1  1  1  1  1
CENTRE ASSIGNMENTS    1  1  1  1  1  1  1  2  2  2  2  2  2  2  2  2  2  2  2  2
CENTRE ASSIGNMENTS    2  2  2  2  2  2  2  2  2  2  2  2  2  2
TYPE ASSIGNMENTS      1  1  1  1  1  1  2  3  4  2  3  4  2  3  4  5  6  7  8  9
TYPE ASSIGNMENTS     10  5  6  7  8  9 10  1  1  1  1  1  1  2  3  4  2  3  4  2
TYPE ASSIGNMENTS      3  4  5  6  7  8  9 10  5  6  7  8  9 10
EXPONENTS  0.3387000D+02 0.5095000D+01 0.1159000D+01 0.3258000D+00 0.1027000D+00
EXPONENTS  0.2526000D-01 0.1407000D+01 0.1407000D+01 0.1407000D+01 0.3880000D+00
EXPONENTS  0.3880000D+00 0.3880000D+00 0.1020000D+00 0.1020000D+00 0.1020000D+00
EXPONENTS  0.1057000D+01 0.1057000D+01 0.1057000D+01 0.1057000D+01 0.1057000D+01
EXPONENTS  0.1057000D+01 0.2470000D+00 0.2470000D+00 0.2470000D+00 0.2470000D+00
EXPONENTS  0.2470000D+00 0.2470000D+00 0.3387000D+02 0.5095000D+01 0.1159000D+01
EXPONENTS  0.3258000D+00 0.1027000D+00 0.2526000D-01 0.1407000D+01 0.1407000D+01
EXPONENTS  0.1407000D+01 0.3880000D+00 0.3880000D+00 0.3880000D+00 0.1020000D+00
EXPONENTS  0.1020000D+00 0.1020000D+00 0.1057000D+01 0.1057000D+01 0.1057000D+01
EXPONENTS  0.1057000D+01 0.1057000D+01 0.1057000D+01 0.2470000D+00 0.2470000D+00
EXPONENTS  0.2470000D+00 0.2470000D+00 0.2470000D+00 0.2470000D+00
MO    1     MO 0.0        OCC NO =    1.0000000  ORB. ENERGY =   -0.499825
  0.60823339D-01  0.10969740D+00  0.16174875D+00  0.16207819D+00  0.61102139D-01
  0.48184636D-03  0.43850060D-16 -0.25998721D-15  0.73216659D-03 -0.44009319D-15
  0.31790257D-15  0.29054768D-02 -0.11809309D-15  0.15798980D-16  0.18989573D-02
  0.47197138D-04  0.47197138D-04 -0.94394277D-04  0.74236895D-17 -0.26498858D-15
  0.35114143D-15 -0.10485809D-03 -0.10485809D-03  0.20971618D-03  0.22333578D-17
 -0.15681067D-15  0.77346740D-16  0.14189647D-04  0.25591612D-04  0.37734817D-04
 -0.56972316D-02 -0.12858864D-01 -0.66988954D-04 -0.44055259D-15  0.15240815D-15
 -0.62437125D-03  0.52180270D-15 -0.28808317D-15  0.45856551D-02  0.11998556D-15
 -0.32622650D-16  0.16543117D-02  0.67031716D-03  0.67031716D-03 -0.13406343D-02
  0.94542880D-17 -0.69863037D-15  0.57814562D-16  0.20960983D-03  0.20960983D-03
 -0.41921966D-03 -0.31114464D-17 -0.12202430D-15  0.10954237D-15
END DATA
 TOTAL ENERGY =       -0.499824825045 THE VIRIAL(-V/T)=   2.00095340
