 TITLE
GAUSSIAN              1 MOL ORBITALS     54 PRIMITIVES        2 NUCLEI
  H    1    (CENTRE  1)   0.00000000  0.00000000  0.00000000  CHARGE =  1.0
  H    2    (CENTRE  2)   0.00000000  0.00000000  2.07869874  CHARGE =  0.0
CENTRE ASSIGNMENTS    1  1  1  1  1  1  1  1  1  1  1  1  1  1  1  1  1  1  1  1
CENTRE ASSIGNMENTS    1  1  1  1  1  1  1  2  2  2  2  2  2  2  2  2  2  2  2  2
CENTRE ASSIGNMENTS    2  2  2  2  2  2  2  2  2  2  2  2  2  2
TYPE ASSIGNMENTS      1  1  1  1  1  1  2  3  4  2  3  4  2  3  4  5  6  7  8  9
TYPE ASSIGNMENTS     10  5  6  7  8  9 10  1  1  1  1  1  1  2  3  4  2  3  4  2
TYPE ASSIGNMENTS      3  4  5  6  7  8  9 10  5  6  7  8  9 10
EXPONENTS  0.3387000D+02 0.5095000D+01 0.1159000D+01 0.3258000D+00 0.1027000D+00
EXPONENTS  0.2526000D-01 0.1407000D+01 0.1407000D+01 0.1407000D+01 0.3880000D+00
EXPONENTS  0.3880000D+00 0.3880000D+00 0.1020000D+00 0.1020000D+00 0.1020000D+00
EXPONENTS  0.1057000D+01 0.1057000D+01 0.1057000D+01 0.1057000D+01 0.1057000D+01
EXPONENTS  0.1057000D+01 0.2470000D+00 0.2470000D+00 0.2470000D+00 0.2470000D+00
EXPONENTS  0.2470000D+00 0.2470000D+00 0.3387000D+02 0.5095000D+01 0.1159000D+01
EXPONENTS  0.3258000D+00 0.1027000D+00 0.2526000D-01 0.1407000D+01 0.1407000D+01
EXPONENTS  0.1407000D+01 0.3880000D+00 0.3880000D+00 0.3880000D+00 0.1020000D+00
EXPONENTS  0.1020000D+00 0.1020000D+00 0.1057000D+01 0.1057000D+01 0.1057000D+01
EXPONENTS  0.1057000D+01 0.1057000D+01 0.1057000D+01 0.2470000D+00 0.2470000D+00
EXPONENTS  0.2470000D+00 0.2470000D+00 0.2470000D+00 0.2470000D+00
MO    1     MO 0.0        OCC NO =    1.0000000  ORB. ENERGY =   -0.499829
  0.60609889D-01  0.10931243D+00  0.16118112D+00  0.15733646D+00  0.57208073D-01
  0.48550923D-03  0.12996994D-15 -0.54895951D-16 -0.25932171D-03 -0.80764561D-16
  0.11137846D-15  0.14056531D-02  0.11946293D-16  0.43791269D-16  0.19020864D-02
  0.59607809D-04  0.59607809D-04 -0.11921562D-03 -0.41901641D-16  0.29455936D-15
  0.23631564D-15 -0.80685867D-04 -0.80685867D-04  0.16137173D-03 -0.51667297D-18
  0.85904561D-17  0.56899279D-16 -0.95508831D-04 -0.17225411D-03 -0.25398858D-03
  0.12262612D-03 -0.91411748D-02 -0.64468855D-04 -0.31200674D-15 -0.29628177D-15
 -0.14433007D-02  0.11232205D-16 -0.25370707D-16  0.21863557D-02 -0.36204829D-16
 -0.57900184D-16  0.20081938D-02 -0.40854231D-03 -0.40854231D-03  0.81708462D-03
  0.39963674D-16  0.40079421D-15  0.13731317D-15  0.32644985D-03  0.32644985D-03
 -0.65289971D-03 -0.12044452D-17  0.11726674D-16  0.95215342D-16
END DATA
 TOTAL ENERGY =       -0.499829002647 THE VIRIAL(-V/T)=   2.00096838
