 TITLE
GAUSSIAN              1 MOL ORBITALS     54 PRIMITIVES        2 NUCLEI
  H    1    (CENTRE  1)   0.00000000  0.00000000  0.00000000  CHARGE =  1.0
  H    2    (CENTRE  2)   0.00000000  0.00000000  4.15739747  CHARGE =  0.0
CENTRE ASSIGNMENTS    1  1  1  1  1  1  1  1  1  1  1  1  1  1  1  1  1  1  1  1
CENTRE ASSIGNMENTS    1  1  1  1  1  1  1  2  2  2  2  2  2  2  2  2  2  2  2  2
CENTRE ASSIGNMENTS    2  2  2  2  2  2  2  2  2  2  2  2  2  2
TYPE ASSIGNMENTS      1  1  1  1  1  1  2  3  4  2  3  4  2  3  4  5  6  7  8  9
TYPE ASSIGNMENTS     10  5  6  7  8  9 10  1  1  1  1  1  1  2  3  4  2  3  4  2
TYPE ASSIGNMENTS      3  4  5  6  7  8  9 10  5  6  7  8  9 10
EXPONENTS  0.3387000D+02 0.5095000D+01 0.1159000D+01 0.3258000D+00 0.1027000D+00
EXPONENTS  0.2526000D-01 0.1407000D+01 0.1407000D+01 0.1407000D+01 0.3880000D+00
EXPONENTS  0.3880000D+00 0.3880000D+00 0.1020000D+00 0.1020000D+00 0.1020000D+00
EXPONENTS  0.1057000D+01 0.1057000D+01 0.1057000D+01 0.1057000D+01 0.1057000D+01
EXPONENTS  0.1057000D+01 0.2470000D+00 0.2470000D+00 0.2470000D+00 0.2470000D+00
EXPONENTS  0.2470000D+00 0.2470000D+00 0.3387000D+02 0.5095000D+01 0.1159000D+01
EXPONENTS  0.3258000D+00 0.1027000D+00 0.2526000D-01 0.1407000D+01 0.1407000D+01
EXPONENTS  0.1407000D+01 0.3880000D+00 0.3880000D+00 0.3880000D+00 0.1020000D+00
EXPONENTS  0.1020000D+00 0.1020000D+00 0.1057000D+01 0.1057000D+01 0.1057000D+01
EXPONENTS  0.1057000D+01 0.1057000D+01 0.1057000D+01 0.2470000D+00 0.2470000D+00
EXPONENTS  0.2470000D+00 0.2470000D+00 0.2470000D+00 0.2470000D+00
MO    1     MO 0.0        OCC NO =    1.0000000  ORB. ENERGY =   -0.499824
  0.60637521D-01  0.10936227D+00  0.16125460D+00  0.15540120D+00  0.49008772D-01
  0.37635140D-03 -0.27115363D-16 -0.91445609D-17  0.20083739D-03  0.58525128D-16
 -0.37111721D-16 -0.18670355D-03  0.35943307D-17 -0.27561561D-17  0.18677156D-03
  0.79532212D-05  0.79532212D-05 -0.15906442D-04  0.11729436D-16  0.12812958D-16
  0.25672249D-17 -0.54594981D-05 -0.54594981D-05  0.10918996D-04  0.23402513D-17
  0.36653109D-17 -0.68941256D-18 -0.28850969D-04 -0.52033910D-04 -0.76723971D-04
  0.56115099D-04 -0.36753219D-03  0.69446661D-05  0.18131129D-15 -0.22244618D-15
  0.75573908D-04 -0.15694580D-16  0.34922677D-16 -0.41868935D-03  0.24764606D-16
 -0.10310560D-16  0.24051826D-03 -0.14038455D-03 -0.14038455D-03  0.28076910D-03
 -0.84621893D-17  0.75404692D-16 -0.11341894D-15 -0.50963706D-04 -0.50963706D-04
  0.10192741D-03  0.12860908D-17 -0.14255742D-16  0.74748281D-17
END DATA
 TOTAL ENERGY =       -0.499824347085 THE VIRIAL(-V/T)=   2.00098997
