 TITLE
GAUSSIAN              1 MOL ORBITALS     54 PRIMITIVES        2 NUCLEI
  H    1    (CENTRE  1)   0.00000000  0.00000000  0.00000000  CHARGE =  1.0
  H    2    (CENTRE  2)   0.00000000  0.00000000 13.22808287  CHARGE =  0.0
CENTRE ASSIGNMENTS    1  1  1  1  1  1  1  1  1  1  1  1  1  1  1  1  1  1  1  1
CENTRE ASSIGNMENTS    1  1  1  1  1  1  1  2  2  2  2  2  2  2  2  2  2  2  2  2
CENTRE ASSIGNMENTS    2  2  2  2  2  2  2  2  2  2  2  2  2  2
TYPE ASSIGNMENTS      1  1  1  1  1  1  2  3  4  2  3  4  2  3  4  5  6  7  8  9
TYPE ASSIGNMENTS     10  5  6  7  8  9 10  1  1  1  1  1  1  2  3  4  2  3  4  2
TYPE ASSIGNMENTS      3  4  5  6  7  8  9 10  5  6  7  8  9 10
EXPONENTS  0.3387000D+02 0.5095000D+01 0.1159000D+01 0.3258000D+00 0.1027000D+00
EXPONENTS  0.2526000D-01 0.1407000D+01 0.1407000D+01 0.1407000D+01 0.3880000D+00
EXPONENTS  0.3880000D+00 0.3880000D+00 0.1020000D+00 0.1020000D+00 0.1020000D+00
EXPONENTS  0.1057000D+01 0.1057000D+01 0.1057000D+01 0.1057000D+01 0.1057000D+01
EXPONENTS  0.1057000D+01 0.2470000D+00 0.2470000D+00 0.2470000D+00 0.2470000D+00
EXPONENTS  0.2470000D+00 0.2470000D+00 0.3387000D+02 0.5095000D+01 0.1159000D+01
EXPONENTS  0.3258000D+00 0.1027000D+00 0.2526000D-01 0.1407000D+01 0.1407000D+01
EXPONENTS  0.1407000D+01 0.3880000D+00 0.3880000D+00 0.3880000D+00 0.1020000D+00
EXPONENTS  0.1020000D+00 0.1020000D+00 0.1057000D+01 0.1057000D+01 0.1057000D+01
EXPONENTS  0.1057000D+01 0.1057000D+01 0.1057000D+01 0.2470000D+00 0.2470000D+00
EXPONENTS  0.2470000D+00 0.2470000D+00 0.2470000D+00 0.2470000D+00
MO    1     MO 0.0        OCC NO =    1.0000000  ORB. ENERGY =   -0.499821
  0.60611786D-01  0.10931585D+00  0.16118616D+00  0.15560819D+00  0.48694413D-01
  0.35495656D-03  0.59989999D-16  0.25390095D-16 -0.65438882D-06 -0.52383312D-16
  0.37792460D-16  0.66720817D-06 -0.98883351D-17  0.67881899D-18 -0.37269751D-06
 -0.44150685D-07 -0.44150685D-07  0.88301369D-07  0.45960305D-18 -0.39483219D-17
  0.95283041D-18  0.20220486D-07  0.20220486D-07 -0.40440973D-07  0.41777945D-19
  0.27635345D-17 -0.31778953D-18 -0.36685313D-05 -0.66163473D-05 -0.97558002D-05
  0.32197585D-04 -0.32785242D-04  0.84473496D-05 -0.72312180D-16 -0.26648365D-15
  0.94774992D-06  0.12648204D-16  0.24179963D-16 -0.19789338D-05 -0.34053357D-17
  0.19921202D-17  0.31627147D-05 -0.14527897D-05 -0.14527897D-05  0.29055794D-05
  0.32147953D-15 -0.19357126D-15 -0.25777687D-15  0.73590281D-06  0.73590281D-06
 -0.14718056D-05 -0.88275861D-17  0.70966890D-17  0.71223876D-17
END DATA
 TOTAL ENERGY =       -0.499821186730 THE VIRIAL(-V/T)=   2.00103125
