 TITLE
GAUSSIAN              1 MOL ORBITALS     54 PRIMITIVES        2 NUCLEI
  H    1    (CENTRE  1)   0.00000000  0.00000000  0.00000000  CHARGE =  1.0
  H    2    (CENTRE  2)   0.00000000  0.00000000  6.80301405  CHARGE =  0.0
CENTRE ASSIGNMENTS    1  1  1  1  1  1  1  1  1  1  1  1  1  1  1  1  1  1  1  1
CENTRE ASSIGNMENTS    1  1  1  1  1  1  1  2  2  2  2  2  2  2  2  2  2  2  2  2
CENTRE ASSIGNMENTS    2  2  2  2  2  2  2  2  2  2  2  2  2  2
TYPE ASSIGNMENTS      1  1  1  1  1  1  2  3  4  2  3  4  2  3  4  5  6  7  8  9
TYPE ASSIGNMENTS     10  5  6  7  8  9 10  1  1  1  1  1  1  2  3  4  2  3  4  2
TYPE ASSIGNMENTS      3  4  5  6  7  8  9 10  5  6  7  8  9 10
EXPONENTS  0.3387000D+02 0.5095000D+01 0.1159000D+01 0.3258000D+00 0.1027000D+00
EXPONENTS  0.2526000D-01 0.1407000D+01 0.1407000D+01 0.1407000D+01 0.3880000D+00
EXPONENTS  0.3880000D+00 0.3880000D+00 0.1020000D+00 0.1020000D+00 0.1020000D+00
EXPONENTS  0.1057000D+01 0.1057000D+01 0.1057000D+01 0.1057000D+01 0.1057000D+01
EXPONENTS  0.1057000D+01 0.2470000D+00 0.2470000D+00 0.2470000D+00 0.2470000D+00
EXPONENTS  0.2470000D+00 0.2470000D+00 0.3387000D+02 0.5095000D+01 0.1159000D+01
EXPONENTS  0.3258000D+00 0.1027000D+00 0.2526000D-01 0.1407000D+01 0.1407000D+01
EXPONENTS  0.1407000D+01 0.3880000D+00 0.3880000D+00 0.3880000D+00 0.1020000D+00
EXPONENTS  0.1020000D+00 0.1020000D+00 0.1057000D+01 0.1057000D+01 0.1057000D+01
EXPONENTS  0.1057000D+01 0.1057000D+01 0.1057000D+01 0.2470000D+00 0.2470000D+00
EXPONENTS  0.2470000D+00 0.2470000D+00 0.2470000D+00 0.2470000D+00
MO    1     MO 0.0        OCC NO =    1.0000000  ORB. ENERGY =   -0.499822
  0.60620134D-01  0.10933091D+00  0.16120836D+00  0.15554580D+00  0.48735571D-01
  0.35501648D-03  0.89439819D-17  0.57178924D-16  0.71910412D-04 -0.64527521D-17
 -0.29517561D-16 -0.74012214D-04  0.50315190D-17  0.87640060D-18  0.38618480D-04
  0.14488381D-04  0.14488381D-04 -0.28976762D-04  0.16606627D-17 -0.38744194D-17
 -0.11731975D-16 -0.65972857D-05 -0.65972857D-05  0.13194571D-04 -0.57239661D-18
  0.13942291D-17  0.14792100D-17 -0.11239643D-04 -0.20271159D-04 -0.29889812D-04
  0.16007371D-03 -0.35701798D-04  0.66988135D-05  0.10864109D-15 -0.25765551D-15
 -0.19818814D-04 -0.19055975D-16  0.44798327D-16 -0.57951507D-04  0.35450117D-17
 -0.55172133D-17  0.64940803D-04 -0.10309636D-03 -0.10309636D-03  0.20619272D-03
  0.13333632D-15 -0.26515456D-16 -0.10396526D-15  0.61222125D-04  0.61222125D-04
 -0.12244425D-03 -0.30972234D-17  0.47658160D-17 -0.24824526D-17
END DATA
 TOTAL ENERGY =       -0.499822259582 THE VIRIAL(-V/T)=   2.00101457
