 TITLE
GAUSSIAN              1 MOL ORBITALS     54 PRIMITIVES        2 NUCLEI
  H    1    (CENTRE  1)   0.00000000  0.00000000  0.00000000  CHARGE =  1.0
  H    2    (CENTRE  2)   0.00000000  0.00000000  9.07068540  CHARGE =  0.0
CENTRE ASSIGNMENTS    1  1  1  1  1  1  1  1  1  1  1  1  1  1  1  1  1  1  1  1
CENTRE ASSIGNMENTS    1  1  1  1  1  1  1  2  2  2  2  2  2  2  2  2  2  2  2  2
CENTRE ASSIGNMENTS    2  2  2  2  2  2  2  2  2  2  2  2  2  2
TYPE ASSIGNMENTS      1  1  1  1  1  1  2  3  4  2  3  4  2  3  4  5  6  7  8  9
TYPE ASSIGNMENTS     10  5  6  7  8  9 10  1  1  1  1  1  1  2  3  4  2  3  4  2
TYPE ASSIGNMENTS      3  4  5  6  7  8  9 10  5  6  7  8  9 10
EXPONENTS  0.3387000D+02 0.5095000D+01 0.1159000D+01 0.3258000D+00 0.1027000D+00
EXPONENTS  0.2526000D-01 0.1407000D+01 0.1407000D+01 0.1407000D+01 0.3880000D+00
EXPONENTS  0.3880000D+00 0.3880000D+00 0.1020000D+00 0.1020000D+00 0.1020000D+00
EXPONENTS  0.1057000D+01 0.1057000D+01 0.1057000D+01 0.1057000D+01 0.1057000D+01
EXPONENTS  0.1057000D+01 0.2470000D+00 0.2470000D+00 0.2470000D+00 0.2470000D+00
EXPONENTS  0.2470000D+00 0.2470000D+00 0.3387000D+02 0.5095000D+01 0.1159000D+01
EXPONENTS  0.3258000D+00 0.1027000D+00 0.2526000D-01 0.1407000D+01 0.1407000D+01
EXPONENTS  0.1407000D+01 0.3880000D+00 0.3880000D+00 0.3880000D+00 0.1020000D+00
EXPONENTS  0.1020000D+00 0.1020000D+00 0.1057000D+01 0.1057000D+01 0.1057000D+01
EXPONENTS  0.1057000D+01 0.1057000D+01 0.1057000D+01 0.2470000D+00 0.2470000D+00
EXPONENTS  0.2470000D+00 0.2470000D+00 0.2470000D+00 0.2470000D+00
MO    1     MO 0.0        OCC NO =    1.0000000  ORB. ENERGY =   -0.499821
  0.60614263D-01  0.10932032D+00  0.16119275D+00  0.15558509D+00  0.48723199D-01
  0.34088275D-03  0.38779330D-16  0.59815609D-16 -0.12721207D-04 -0.23760111D-16
 -0.21527394D-16  0.12581519D-04 -0.15147090D-17  0.53011653D-17 -0.62909391D-05
 -0.34112455D-06 -0.34112455D-06  0.68224910D-06 -0.95165515D-18 -0.10723601D-16
  0.35349150D-17  0.79772798D-07  0.79772798D-07 -0.15954560D-06 -0.19340332D-18
 -0.26830011D-17  0.26515823D-17  0.56147582D-05  0.10126448D-04  0.14931441D-04
 -0.65514042D-04  0.52365320D-04  0.75766027D-05 -0.57756779D-15 -0.65338380D-15
 -0.81938370D-05  0.10834226D-15  0.58929140D-16  0.26504035D-04 -0.20306374D-16
  0.82298419D-18 -0.46392523D-04  0.24955532D-04  0.24955532D-04 -0.49911065D-04
 -0.45196711D-16 -0.15648136D-15  0.82329909D-16 -0.14563245D-04 -0.14563245D-04
  0.29126491D-04  0.16713646D-17  0.44379689D-17 -0.24590928D-17
END DATA
 TOTAL ENERGY =       -0.499821447173 THE VIRIAL(-V/T)=   2.00102983
