 TITLE
GAUSSIAN              1 MOL ORBITALS     54 PRIMITIVES        2 NUCLEI
  H    1    (CENTRE  1)   0.00000000  0.00000000  0.00000000  CHARGE =  1.0
  H    2    (CENTRE  2)   0.00000000  0.00000000  3.02356180  CHARGE =  0.0
CENTRE ASSIGNMENTS    1  1  1  1  1  1  1  1  1  1  1  1  1  1  1  1  1  1  1  1
CENTRE ASSIGNMENTS    1  1  1  1  1  1  1  2  2  2  2  2  2  2  2  2  2  2  2  2
CENTRE ASSIGNMENTS    2  2  2  2  2  2  2  2  2  2  2  2  2  2
TYPE ASSIGNMENTS      1  1  1  1  1  1  2  3  4  2  3  4  2  3  4  5  6  7  8  9
TYPE ASSIGNMENTS     10  5  6  7  8  9 10  1  1  1  1  1  1  2  3  4  2  3  4  2
TYPE ASSIGNMENTS      3  4  5  6  7  8  9 10  5  6  7  8  9 10
EXPONENTS  0.3387000D+02 0.5095000D+01 0.1159000D+01 0.3258000D+00 0.1027000D+00
EXPONENTS  0.2526000D-01 0.1407000D+01 0.1407000D+01 0.1407000D+01 0.3880000D+00
EXPONENTS  0.3880000D+00 0.3880000D+00 0.1020000D+00 0.1020000D+00 0.1020000D+00
EXPONENTS  0.1057000D+01 0.1057000D+01 0.1057000D+01 0.1057000D+01 0.1057000D+01
EXPONENTS  0.1057000D+01 0.2470000D+00 0.2470000D+00 0.2470000D+00 0.2470000D+00
EXPONENTS  0.2470000D+00 0.2470000D+00 0.3387000D+02 0.5095000D+01 0.1159000D+01
EXPONENTS  0.3258000D+00 0.1027000D+00 0.2526000D-01 0.1407000D+01 0.1407000D+01
EXPONENTS  0.1407000D+01 0.3880000D+00 0.3880000D+00 0.3880000D+00 0.1020000D+00
EXPONENTS  0.1020000D+00 0.1020000D+00 0.1057000D+01 0.1057000D+01 0.1057000D+01
EXPONENTS  0.1057000D+01 0.1057000D+01 0.1057000D+01 0.2470000D+00 0.2470000D+00
EXPONENTS  0.2470000D+00 0.2470000D+00 0.2470000D+00 0.2470000D+00
MO    1     MO 0.0        OCC NO =    1.0000000  ORB. ENERGY =   -0.499826
  0.60646733D-01  0.10937888D+00  0.16127909D+00  0.15521814D+00  0.50849842D-01
  0.41105881D-03  0.27975232D-19 -0.96071386D-16 -0.58077947D-04  0.53762764D-17
  0.30445319D-16  0.10294944D-03  0.18041003D-16 -0.10954350D-16  0.78095243D-03
  0.86957904D-04  0.86957904D-04 -0.17391581D-03 -0.26292778D-16  0.37340230D-16
  0.27508297D-16 -0.75741678D-04 -0.75741678D-04  0.15148336D-03  0.24013269D-17
  0.90091650D-17 -0.12369766D-16  0.73639817D-05  0.13281244D-04  0.19583187D-04
  0.60477947D-03 -0.24098231D-02 -0.60987265D-05 -0.13036331D-16  0.13871831D-15
  0.73153342D-03 -0.49124546D-16  0.21029416D-17 -0.21496115D-03  0.18471700D-16
  0.58551765D-17  0.76264597D-03  0.36006916D-03  0.36006916D-03 -0.72013833D-03
  0.23976834D-16  0.10529476D-15  0.92569188D-16  0.62172066D-04  0.62172066D-04
 -0.12434413D-03  0.80196561D-18  0.51826087D-17 -0.22002302D-16
END DATA
 TOTAL ENERGY =       -0.499825688340 THE VIRIAL(-V/T)=   2.00097563
