 TITLE
GAUSSIAN              1 MOL ORBITALS     54 PRIMITIVES        2 NUCLEI
  H    1    (CENTRE  1)   0.00000000  0.00000000  0.00000000  CHARGE =  1.0
  H    2    (CENTRE  2)   0.00000000  0.00000000 10.39349369  CHARGE =  0.0
CENTRE ASSIGNMENTS    1  1  1  1  1  1  1  1  1  1  1  1  1  1  1  1  1  1  1  1
CENTRE ASSIGNMENTS    1  1  1  1  1  1  1  2  2  2  2  2  2  2  2  2  2  2  2  2
CENTRE ASSIGNMENTS    2  2  2  2  2  2  2  2  2  2  2  2  2  2
TYPE ASSIGNMENTS      1  1  1  1  1  1  2  3  4  2  3  4  2  3  4  5  6  7  8  9
TYPE ASSIGNMENTS     10  5  6  7  8  9 10  1  1  1  1  1  1  2  3  4  2  3  4  2
TYPE ASSIGNMENTS      3  4  5  6  7  8  9 10  5  6  7  8  9 10
EXPONENTS  0.3387000D+02 0.5095000D+01 0.1159000D+01 0.3258000D+00 0.1027000D+00
EXPONENTS  0.2526000D-01 0.1407000D+01 0.1407000D+01 0.1407000D+01 0.3880000D+00
EXPONENTS  0.3880000D+00 0.3880000D+00 0.1020000D+00 0.1020000D+00 0.1020000D+00
EXPONENTS  0.1057000D+01 0.1057000D+01 0.1057000D+01 0.1057000D+01 0.1057000D+01
EXPONENTS  0.1057000D+01 0.2470000D+00 0.2470000D+00 0.2470000D+00 0.2470000D+00
EXPONENTS  0.2470000D+00 0.2470000D+00 0.3387000D+02 0.5095000D+01 0.1159000D+01
EXPONENTS  0.3258000D+00 0.1027000D+00 0.2526000D-01 0.1407000D+01 0.1407000D+01
EXPONENTS  0.1407000D+01 0.3880000D+00 0.3880000D+00 0.3880000D+00 0.1020000D+00
EXPONENTS  0.1020000D+00 0.1020000D+00 0.1057000D+01 0.1057000D+01 0.1057000D+01
EXPONENTS  0.1057000D+01 0.1057000D+01 0.1057000D+01 0.2470000D+00 0.2470000D+00
EXPONENTS  0.2470000D+00 0.2470000D+00 0.2470000D+00 0.2470000D+00
MO    1     MO 0.0        OCC NO =    1.0000000  ORB. ENERGY =   -0.499821
  0.60613541D-01  0.10931902D+00  0.16119083D+00  0.15559324D+00  0.48712289D-01
  0.34644935D-03 -0.36987025D-16  0.13693033D-16 -0.47710831D-05 -0.45956315D-17
 -0.29692847D-17  0.48264890D-05  0.21451574D-17  0.10608304D-17 -0.26404274D-05
 -0.14126114D-06 -0.14126114D-06  0.28252228D-06 -0.29267481D-18 -0.12806000D-17
  0.66274440D-17  0.51040397D-07  0.51040397D-07 -0.10208079D-06 -0.30654103D-19
 -0.12905387D-18 -0.90479356D-18  0.45165962D-05  0.81458673D-05  0.12011077D-04
 -0.30320810D-04 -0.28294730D-05  0.13531898D-04  0.31786433D-15  0.12532184D-16
 -0.78405645D-04 -0.46255191D-16 -0.22416270D-16  0.81213353D-04 -0.37153736D-19
 -0.27705374D-17 -0.39717083D-04  0.21087862D-04  0.21087862D-04 -0.42175725D-04
  0.26848341D-16 -0.34303233D-15  0.49317921D-15 -0.94653174D-05 -0.94653174D-05
  0.18930635D-04 -0.89029437D-18  0.90266413D-17 -0.15023674D-16
END DATA
 TOTAL ENERGY =       -0.499821325418 THE VIRIAL(-V/T)=   2.00102621
