 TITLE
GAUSSIAN              1 MOL ORBITALS     54 PRIMITIVES        2 NUCLEI
  H    1    (CENTRE  1)   0.00000000  0.00000000  0.00000000  CHARGE =  1.0
  H    2    (CENTRE  2)   0.00000000  0.00000000  4.91328792  CHARGE =  0.0
CENTRE ASSIGNMENTS    1  1  1  1  1  1  1  1  1  1  1  1  1  1  1  1  1  1  1  1
CENTRE ASSIGNMENTS    1  1  1  1  1  1  1  2  2  2  2  2  2  2  2  2  2  2  2  2
CENTRE ASSIGNMENTS    2  2  2  2  2  2  2  2  2  2  2  2  2  2
TYPE ASSIGNMENTS      1  1  1  1  1  1  2  3  4  2  3  4  2  3  4  5  6  7  8  9
TYPE ASSIGNMENTS     10  5  6  7  8  9 10  1  1  1  1  1  1  2  3  4  2  3  4  2
TYPE ASSIGNMENTS      3  4  5  6  7  8  9 10  5  6  7  8  9 10
EXPONENTS  0.3387000D+02 0.5095000D+01 0.1159000D+01 0.3258000D+00 0.1027000D+00
EXPONENTS  0.2526000D-01 0.1407000D+01 0.1407000D+01 0.1407000D+01 0.3880000D+00
EXPONENTS  0.3880000D+00 0.3880000D+00 0.1020000D+00 0.1020000D+00 0.1020000D+00
EXPONENTS  0.1057000D+01 0.1057000D+01 0.1057000D+01 0.1057000D+01 0.1057000D+01
EXPONENTS  0.1057000D+01 0.2470000D+00 0.2470000D+00 0.2470000D+00 0.2470000D+00
EXPONENTS  0.2470000D+00 0.2470000D+00 0.3387000D+02 0.5095000D+01 0.1159000D+01
EXPONENTS  0.3258000D+00 0.1027000D+00 0.2526000D-01 0.1407000D+01 0.1407000D+01
EXPONENTS  0.1407000D+01 0.3880000D+00 0.3880000D+00 0.3880000D+00 0.1020000D+00
EXPONENTS  0.1020000D+00 0.1020000D+00 0.1057000D+01 0.1057000D+01 0.1057000D+01
EXPONENTS  0.1057000D+01 0.1057000D+01 0.1057000D+01 0.2470000D+00 0.2470000D+00
EXPONENTS  0.2470000D+00 0.2470000D+00 0.2470000D+00 0.2470000D+00
MO    1     MO 0.0        OCC NO =    1.0000000  ORB. ENERGY =   -0.499823
  0.60628965D-01  0.10934684D+00  0.16123185D+00  0.15545814D+00  0.48857843D-01
  0.36914713D-03  0.34292369D-16  0.40460123D-16  0.12321206D-03 -0.36150920D-16
 -0.34393884D-16 -0.13021525D-03  0.14443063D-16  0.68577200D-17  0.12101807D-03
  0.31025977D-04  0.31025977D-04 -0.62051954D-04  0.72081879D-17 -0.36557316D-17
 -0.14257359D-15 -0.18459804D-04 -0.18459804D-04  0.36919608D-04 -0.45323193D-19
  0.14252142D-17  0.92195762D-17 -0.14715119D-04 -0.26539323D-04 -0.39132216D-04
 -0.80482000D-04 -0.13957732D-03  0.20542393D-05 -0.13365753D-15 -0.21649630D-15
  0.24388528D-03  0.26585631D-16  0.55864427D-16 -0.36311212D-04 -0.63113658D-17
 -0.40222763D-17  0.16498252D-03 -0.31018243D-04 -0.31018243D-04  0.62036485D-04
 -0.64070499D-16  0.23655224D-16 -0.58379297D-15 -0.28612083D-04 -0.28612083D-04
  0.57224165D-04  0.19109133D-17  0.42677053D-17  0.25249278D-16
END DATA
 TOTAL ENERGY =       -0.499822944477 THE VIRIAL(-V/T)=   2.00099733
