 TITLE
GAUSSIAN              1 MOL ORBITALS     54 PRIMITIVES        2 NUCLEI
  H    1    (CENTRE  1)   0.00000000  0.00000000  0.00000000  CHARGE =  1.0
  H    2    (CENTRE  2)   0.00000000  0.00000000  5.48020576  CHARGE =  0.0
CENTRE ASSIGNMENTS    1  1  1  1  1  1  1  1  1  1  1  1  1  1  1  1  1  1  1  1
CENTRE ASSIGNMENTS    1  1  1  1  1  1  1  2  2  2  2  2  2  2  2  2  2  2  2  2
CENTRE ASSIGNMENTS    2  2  2  2  2  2  2  2  2  2  2  2  2  2
TYPE ASSIGNMENTS      1  1  1  1  1  1  2  3  4  2  3  4  2  3  4  5  6  7  8  9
TYPE ASSIGNMENTS     10  5  6  7  8  9 10  1  1  1  1  1  1  2  3  4  2  3  4  2
TYPE ASSIGNMENTS      3  4  5  6  7  8  9 10  5  6  7  8  9 10
EXPONENTS  0.3387000D+02 0.5095000D+01 0.1159000D+01 0.3258000D+00 0.1027000D+00
EXPONENTS  0.2526000D-01 0.1407000D+01 0.1407000D+01 0.1407000D+01 0.3880000D+00
EXPONENTS  0.3880000D+00 0.3880000D+00 0.1020000D+00 0.1020000D+00 0.1020000D+00
EXPONENTS  0.1057000D+01 0.1057000D+01 0.1057000D+01 0.1057000D+01 0.1057000D+01
EXPONENTS  0.1057000D+01 0.2470000D+00 0.2470000D+00 0.2470000D+00 0.2470000D+00
EXPONENTS  0.2470000D+00 0.2470000D+00 0.3387000D+02 0.5095000D+01 0.1159000D+01
EXPONENTS  0.3258000D+00 0.1027000D+00 0.2526000D-01 0.1407000D+01 0.1407000D+01
EXPONENTS  0.1407000D+01 0.3880000D+00 0.3880000D+00 0.3880000D+00 0.1020000D+00
EXPONENTS  0.1020000D+00 0.1020000D+00 0.1057000D+01 0.1057000D+01 0.1057000D+01
EXPONENTS  0.1057000D+01 0.1057000D+01 0.1057000D+01 0.2470000D+00 0.2470000D+00
EXPONENTS  0.2470000D+00 0.2470000D+00 0.2470000D+00 0.2470000D+00
MO    1     MO 0.0        OCC NO =    1.0000000  ORB. ENERGY =   -0.499823
  0.60628942D-01  0.10934679D+00  0.16123178D+00  0.15545762D+00  0.48823600D-01
  0.36321120D-03  0.41921204D-17  0.19711579D-16  0.11762327D-03 -0.13290983D-17
 -0.11535903D-16 -0.13334922D-03 -0.90902845D-18  0.40988029D-17  0.10245415D-03
  0.43301852D-04  0.43301852D-04 -0.86603703D-04 -0.12939607D-17 -0.34348108D-16
 -0.13382211D-16 -0.23088159D-04 -0.23088159D-04  0.46176319D-04 -0.41052823D-18
  0.40905817D-17  0.94851936D-18  0.68776294D-05  0.12404088D-04  0.18289820D-04
 -0.21798287D-04 -0.91080467D-04  0.20825070D-05 -0.92695280D-15 -0.33465405D-15
 -0.15980513D-04  0.16149341D-15  0.52165403D-16  0.16075880D-03 -0.19287339D-16
 -0.58849937D-17  0.12866148D-03  0.40862226D-04  0.40862226D-04 -0.81724452D-04
  0.46354649D-16 -0.63001858D-16 -0.43329918D-16  0.15785565D-04  0.15785565D-04
 -0.31571130D-04 -0.20671353D-17  0.13093640D-17  0.14178421D-17
END DATA
 TOTAL ENERGY =       -0.499822488200 THE VIRIAL(-V/T)=   2.00100767
