 TITLE
GAUSSIAN              1 MOL ORBITALS     54 PRIMITIVES        2 NUCLEI
  H    1    (CENTRE  1)   0.00000000  0.00000000  0.00000000  CHARGE =  1.0
  H    2    (CENTRE  2)   0.00000000  0.00000000  5.66917837  CHARGE =  0.0
CENTRE ASSIGNMENTS    1  1  1  1  1  1  1  1  1  1  1  1  1  1  1  1  1  1  1  1
CENTRE ASSIGNMENTS    1  1  1  1  1  1  1  2  2  2  2  2  2  2  2  2  2  2  2  2
CENTRE ASSIGNMENTS    2  2  2  2  2  2  2  2  2  2  2  2  2  2
TYPE ASSIGNMENTS      1  1  1  1  1  1  2  3  4  2  3  4  2  3  4  5  6  7  8  9
TYPE ASSIGNMENTS     10  5  6  7  8  9 10  1  1  1  1  1  1  2  3  4  2  3  4  2
TYPE ASSIGNMENTS      3  4  5  6  7  8  9 10  5  6  7  8  9 10
EXPONENTS  0.3387000D+02 0.5095000D+01 0.1159000D+01 0.3258000D+00 0.1027000D+00
EXPONENTS  0.2526000D-01 0.1407000D+01 0.1407000D+01 0.1407000D+01 0.3880000D+00
EXPONENTS  0.3880000D+00 0.3880000D+00 0.1020000D+00 0.1020000D+00 0.1020000D+00
EXPONENTS  0.1057000D+01 0.1057000D+01 0.1057000D+01 0.1057000D+01 0.1057000D+01
EXPONENTS  0.1057000D+01 0.2470000D+00 0.2470000D+00 0.2470000D+00 0.2470000D+00
EXPONENTS  0.2470000D+00 0.2470000D+00 0.3387000D+02 0.5095000D+01 0.1159000D+01
EXPONENTS  0.3258000D+00 0.1027000D+00 0.2526000D-01 0.1407000D+01 0.1407000D+01
EXPONENTS  0.1407000D+01 0.3880000D+00 0.3880000D+00 0.3880000D+00 0.1020000D+00
EXPONENTS  0.1020000D+00 0.1020000D+00 0.1057000D+01 0.1057000D+01 0.1057000D+01
EXPONENTS  0.1057000D+01 0.1057000D+01 0.1057000D+01 0.2470000D+00 0.2470000D+00
EXPONENTS  0.2470000D+00 0.2470000D+00 0.2470000D+00 0.2470000D+00
MO    1     MO 0.0        OCC NO =    1.0000000  ORB. ENERGY =   -0.499823
  0.60628820D-01  0.10934657D+00  0.16123146D+00  0.15546130D+00  0.48812954D-01
  0.36170568D-03  0.47341821D-17 -0.27920674D-16  0.11925710D-03 -0.25615396D-16
  0.10341505D-16 -0.13482971D-03 -0.20572720D-17 -0.67208663D-17  0.96146876D-04
  0.43304879D-04  0.43304879D-04 -0.86609758D-04  0.77861113D-17  0.28822182D-16
 -0.71525288D-17 -0.22359936D-04 -0.22359936D-04  0.44719872D-04 -0.21125332D-17
 -0.33453668D-17 -0.39337264D-18  0.88374761D-05  0.15938752D-04  0.23501681D-04
  0.15542266D-04 -0.83478093D-04  0.25093184D-05 -0.26493394D-16  0.24833990D-15
 -0.88291144D-04 -0.76556065D-17 -0.83642531D-17  0.17406004D-03  0.67075395D-17
  0.21620898D-18  0.11915055D-03  0.29989203D-04  0.29989203D-04 -0.59978406D-04
  0.66316887D-16  0.13776670D-15 -0.60706284D-16  0.30669006D-04  0.30669006D-04
 -0.61338012D-04 -0.27404579D-17  0.26055007D-18  0.27116121D-17
END DATA
 TOTAL ENERGY =       -0.499822487235 THE VIRIAL(-V/T)=   2.00101004
