 TITLE
GAUSSIAN              1 MOL ORBITALS     54 PRIMITIVES        2 NUCLEI
  H    1    (CENTRE  1)   0.00000000  0.00000000  0.00000000  CHARGE =  1.0
  H    2    (CENTRE  2)   0.00000000  0.00000000  3.59047964  CHARGE =  0.0
CENTRE ASSIGNMENTS    1  1  1  1  1  1  1  1  1  1  1  1  1  1  1  1  1  1  1  1
CENTRE ASSIGNMENTS    1  1  1  1  1  1  1  2  2  2  2  2  2  2  2  2  2  2  2  2
CENTRE ASSIGNMENTS    2  2  2  2  2  2  2  2  2  2  2  2  2  2
TYPE ASSIGNMENTS      1  1  1  1  1  1  2  3  4  2  3  4  2  3  4  5  6  7  8  9
TYPE ASSIGNMENTS     10  5  6  7  8  9 10  1  1  1  1  1  1  2  3  4  2  3  4  2
TYPE ASSIGNMENTS      3  4  5  6  7  8  9 10  5  6  7  8  9 10
EXPONENTS  0.3387000D+02 0.5095000D+01 0.1159000D+01 0.3258000D+00 0.1027000D+00
EXPONENTS  0.2526000D-01 0.1407000D+01 0.1407000D+01 0.1407000D+01 0.3880000D+00
EXPONENTS  0.3880000D+00 0.3880000D+00 0.1020000D+00 0.1020000D+00 0.1020000D+00
EXPONENTS  0.1057000D+01 0.1057000D+01 0.1057000D+01 0.1057000D+01 0.1057000D+01
EXPONENTS  0.1057000D+01 0.2470000D+00 0.2470000D+00 0.2470000D+00 0.2470000D+00
EXPONENTS  0.2470000D+00 0.2470000D+00 0.3387000D+02 0.5095000D+01 0.1159000D+01
EXPONENTS  0.3258000D+00 0.1027000D+00 0.2526000D-01 0.1407000D+01 0.1407000D+01
EXPONENTS  0.1407000D+01 0.3880000D+00 0.3880000D+00 0.3880000D+00 0.1020000D+00
EXPONENTS  0.1020000D+00 0.1020000D+00 0.1057000D+01 0.1057000D+01 0.1057000D+01
EXPONENTS  0.1057000D+01 0.1057000D+01 0.1057000D+01 0.2470000D+00 0.2470000D+00
EXPONENTS  0.2470000D+00 0.2470000D+00 0.2470000D+00 0.2470000D+00
MO    1     MO 0.0        OCC NO =    1.0000000  ORB. ENERGY =   -0.499825
  0.60654345D-01  0.10939261D+00  0.16129934D+00  0.15523005D+00  0.49475648D-01
  0.38453342D-03 -0.19607066D-16  0.45425728D-16  0.23340786D-03 -0.20722904D-16
  0.16299219D-16 -0.22895829D-03  0.85616851D-17  0.18503576D-16  0.36583543D-03
  0.52303262D-04  0.52303262D-04 -0.10460652D-03 -0.18617311D-16 -0.38908333D-16
  0.19719604D-18 -0.25621720D-04 -0.25621720D-04  0.51243439D-04  0.67722108D-18
  0.35940087D-16  0.12957003D-17  0.14190454D-04  0.25593068D-04  0.37736964D-04
  0.28849397D-03 -0.91433656D-03  0.93451247D-05  0.21085112D-15 -0.17972411D-15
 -0.47197741D-04 -0.14530653D-16 -0.58464155D-18 -0.47541431D-03 -0.54116784D-17
 -0.15185842D-16  0.37987115D-03  0.19721624D-03  0.19721624D-03 -0.39443249D-03
  0.65464444D-16 -0.38763752D-16 -0.22816297D-16 -0.27481479D-04 -0.27481479D-04
  0.54962958D-04 -0.19607931D-17  0.30029851D-16  0.18473128D-18
END DATA
 TOTAL ENERGY =       -0.499824681077 THE VIRIAL(-V/T)=   2.00098400
