 TITLE
GAUSSIAN              1 MOL ORBITALS     54 PRIMITIVES        2 NUCLEI
  H    1    (CENTRE  1)   0.00000000  0.00000000  0.00000000  CHARGE =  1.0
  H    2    (CENTRE  2)   0.00000000  0.00000000  5.85815099  CHARGE =  0.0
CENTRE ASSIGNMENTS    1  1  1  1  1  1  1  1  1  1  1  1  1  1  1  1  1  1  1  1
CENTRE ASSIGNMENTS    1  1  1  1  1  1  1  2  2  2  2  2  2  2  2  2  2  2  2  2
CENTRE ASSIGNMENTS    2  2  2  2  2  2  2  2  2  2  2  2  2  2
TYPE ASSIGNMENTS      1  1  1  1  1  1  2  3  4  2  3  4  2  3  4  5  6  7  8  9
TYPE ASSIGNMENTS     10  5  6  7  8  9 10  1  1  1  1  1  1  2  3  4  2  3  4  2
TYPE ASSIGNMENTS      3  4  5  6  7  8  9 10  5  6  7  8  9 10
EXPONENTS  0.3387000D+02 0.5095000D+01 0.1159000D+01 0.3258000D+00 0.1027000D+00
EXPONENTS  0.2526000D-01 0.1407000D+01 0.1407000D+01 0.1407000D+01 0.3880000D+00
EXPONENTS  0.3880000D+00 0.3880000D+00 0.1020000D+00 0.1020000D+00 0.1020000D+00
EXPONENTS  0.1057000D+01 0.1057000D+01 0.1057000D+01 0.1057000D+01 0.1057000D+01
EXPONENTS  0.1057000D+01 0.2470000D+00 0.2470000D+00 0.2470000D+00 0.2470000D+00
EXPONENTS  0.2470000D+00 0.2470000D+00 0.3387000D+02 0.5095000D+01 0.1159000D+01
EXPONENTS  0.3258000D+00 0.1027000D+00 0.2526000D-01 0.1407000D+01 0.1407000D+01
EXPONENTS  0.1407000D+01 0.3880000D+00 0.3880000D+00 0.3880000D+00 0.1020000D+00
EXPONENTS  0.1020000D+00 0.1020000D+00 0.1057000D+01 0.1057000D+01 0.1057000D+01
EXPONENTS  0.1057000D+01 0.1057000D+01 0.1057000D+01 0.2470000D+00 0.2470000D+00
EXPONENTS  0.2470000D+00 0.2470000D+00 0.2470000D+00 0.2470000D+00
MO    1     MO 0.0        OCC NO =    1.0000000  ORB. ENERGY =   -0.499823
  0.60628305D-01  0.10934564D+00  0.16123009D+00  0.15546891D+00  0.48801014D-01
  0.36044414D-03  0.52115615D-16  0.82431996D-16  0.11962956D-03 -0.30347026D-16
 -0.18315445D-16 -0.13367758D-03  0.41800264D-17  0.64772497D-17  0.88791222D-04
  0.41138151D-04  0.41138151D-04 -0.82276302D-04 -0.54797014D-17 -0.19142407D-16
 -0.58611455D-16 -0.20635925D-04 -0.20635925D-04  0.41271850D-04  0.76469021D-18
  0.68817628D-17 -0.29280521D-18  0.81189695D-05  0.14642896D-04  0.21590941D-04
  0.54382352D-04 -0.77117813D-04  0.30976276D-05 -0.38091582D-16 -0.11301960D-15
 -0.13383754D-03  0.10077161D-16  0.26697190D-16  0.16278345D-03 -0.24919792D-17
 -0.54400199D-18  0.11030286D-03  0.76672372D-05  0.76672372D-05 -0.15334474D-04
  0.14901414D-15 -0.53241519D-16 -0.23978473D-15  0.43627822D-04  0.43627822D-04
 -0.87255645D-04 -0.42181464D-17  0.18448146D-17  0.61374218D-17
END DATA
 TOTAL ENERGY =       -0.499822512789 THE VIRIAL(-V/T)=   2.00101167
