 TITLE
GAUSSIAN              1 MOL ORBITALS     54 PRIMITIVES        2 NUCLEI
  H    1    (CENTRE  1)   0.00000000  0.00000000  0.00000000  CHARGE =  1.0
  H    2    (CENTRE  2)   0.00000000  0.00000000  9.63760324  CHARGE =  0.0
CENTRE ASSIGNMENTS    1  1  1  1  1  1  1  1  1  1  1  1  1  1  1  1  1  1  1  1
CENTRE ASSIGNMENTS    1  1  1  1  1  1  1  2  2  2  2  2  2  2  2  2  2  2  2  2
CENTRE ASSIGNMENTS    2  2  2  2  2  2  2  2  2  2  2  2  2  2
TYPE ASSIGNMENTS      1  1  1  1  1  1  2  3  4  2  3  4  2  3  4  5  6  7  8  9
TYPE ASSIGNMENTS     10  5  6  7  8  9 10  1  1  1  1  1  1  2  3  4  2  3  4  2
TYPE ASSIGNMENTS      3  4  5  6  7  8  9 10  5  6  7  8  9 10
EXPONENTS  0.3387000D+02 0.5095000D+01 0.1159000D+01 0.3258000D+00 0.1027000D+00
EXPONENTS  0.2526000D-01 0.1407000D+01 0.1407000D+01 0.1407000D+01 0.3880000D+00
EXPONENTS  0.3880000D+00 0.3880000D+00 0.1020000D+00 0.1020000D+00 0.1020000D+00
EXPONENTS  0.1057000D+01 0.1057000D+01 0.1057000D+01 0.1057000D+01 0.1057000D+01
EXPONENTS  0.1057000D+01 0.2470000D+00 0.2470000D+00 0.2470000D+00 0.2470000D+00
EXPONENTS  0.2470000D+00 0.2470000D+00 0.3387000D+02 0.5095000D+01 0.1159000D+01
EXPONENTS  0.3258000D+00 0.1027000D+00 0.2526000D-01 0.1407000D+01 0.1407000D+01
EXPONENTS  0.1407000D+01 0.3880000D+00 0.3880000D+00 0.3880000D+00 0.1020000D+00
EXPONENTS  0.1020000D+00 0.1020000D+00 0.1057000D+01 0.1057000D+01 0.1057000D+01
EXPONENTS  0.1057000D+01 0.1057000D+01 0.1057000D+01 0.2470000D+00 0.2470000D+00
EXPONENTS  0.2470000D+00 0.2470000D+00 0.2470000D+00 0.2470000D+00
MO    1     MO 0.0        OCC NO =    1.0000000  ORB. ENERGY =   -0.499821
  0.60614208D-01  0.10932022D+00  0.16119260D+00  0.15558657D+00  0.48720468D-01
  0.34262334D-03 -0.30892465D-16 -0.82837994D-16 -0.85439701D-05  0.80180812D-17
  0.31715256D-16  0.84829516D-05  0.26480227D-17 -0.87787218D-17 -0.43419407D-05
 -0.13499734D-06 -0.13499734D-06  0.26999468D-06  0.19702684D-17  0.92137799D-17
 -0.20478812D-17  0.13616034D-07  0.13616034D-07 -0.27232068D-07 -0.26415470D-18
  0.57834672D-18 -0.69223875D-18  0.72879324D-05  0.13144086D-04  0.19380948D-04
 -0.64090009D-04  0.32292148D-04  0.10077678D-04  0.59168479D-15 -0.20670588D-15
 -0.59515286D-04 -0.59779859D-16  0.36704941D-16  0.71073480D-04  0.79532352D-19
 -0.55669565D-17 -0.49662810D-04  0.29984962D-04  0.29984962D-04 -0.59969924D-04
  0.20736942D-16  0.12334114D-15  0.41168161D-15 -0.14781793D-04 -0.14781793D-04
  0.29563585D-04 -0.59266898D-18 -0.34088769D-17 -0.12267312D-16
END DATA
 TOTAL ENERGY =       -0.499821431008 THE VIRIAL(-V/T)=   2.00102754
