 TITLE
GAUSSIAN              1 MOL ORBITALS     54 PRIMITIVES        2 NUCLEI
  H    1    (CENTRE  1)   0.00000000  0.00000000  0.00000000  CHARGE =  1.0
  H    2    (CENTRE  2)   0.00000000  0.00000000  7.18095927  CHARGE =  0.0
CENTRE ASSIGNMENTS    1  1  1  1  1  1  1  1  1  1  1  1  1  1  1  1  1  1  1  1
CENTRE ASSIGNMENTS    1  1  1  1  1  1  1  2  2  2  2  2  2  2  2  2  2  2  2  2
CENTRE ASSIGNMENTS    2  2  2  2  2  2  2  2  2  2  2  2  2  2
TYPE ASSIGNMENTS      1  1  1  1  1  1  2  3  4  2  3  4  2  3  4  5  6  7  8  9
TYPE ASSIGNMENTS     10  5  6  7  8  9 10  1  1  1  1  1  1  2  3  4  2  3  4  2
TYPE ASSIGNMENTS      3  4  5  6  7  8  9 10  5  6  7  8  9 10
EXPONENTS  0.3387000D+02 0.5095000D+01 0.1159000D+01 0.3258000D+00 0.1027000D+00
EXPONENTS  0.2526000D-01 0.1407000D+01 0.1407000D+01 0.1407000D+01 0.3880000D+00
EXPONENTS  0.3880000D+00 0.3880000D+00 0.1020000D+00 0.1020000D+00 0.1020000D+00
EXPONENTS  0.1057000D+01 0.1057000D+01 0.1057000D+01 0.1057000D+01 0.1057000D+01
EXPONENTS  0.1057000D+01 0.2470000D+00 0.2470000D+00 0.2470000D+00 0.2470000D+00
EXPONENTS  0.2470000D+00 0.2470000D+00 0.3387000D+02 0.5095000D+01 0.1159000D+01
EXPONENTS  0.3258000D+00 0.1027000D+00 0.2526000D-01 0.1407000D+01 0.1407000D+01
EXPONENTS  0.1407000D+01 0.3880000D+00 0.3880000D+00 0.3880000D+00 0.1020000D+00
EXPONENTS  0.1020000D+00 0.1020000D+00 0.1057000D+01 0.1057000D+01 0.1057000D+01
EXPONENTS  0.1057000D+01 0.1057000D+01 0.1057000D+01 0.2470000D+00 0.2470000D+00
EXPONENTS  0.2470000D+00 0.2470000D+00 0.2470000D+00 0.2470000D+00
MO    1     MO 0.0        OCC NO =    1.0000000  ORB. ENERGY =   -0.499822
  0.60616735D-01  0.10932478D+00  0.16119932D+00  0.15557225D+00  0.48719695D-01
  0.35197145D-03  0.16785133D-16  0.13188661D-15  0.39498385D-04 -0.11718168D-17
 -0.30202894D-16 -0.39646660D-04  0.25409462D-17  0.35326441D-17  0.19502592D-04
  0.61413185D-05  0.61413185D-05 -0.12282637D-04  0.42454971D-17  0.64817205D-17
 -0.39303899D-16 -0.27059122D-05 -0.27059122D-05  0.54118244D-05 -0.18463289D-18
 -0.46409421D-17  0.22390161D-17 -0.14985642D-04 -0.27027223D-04 -0.39851625D-04
  0.14056369D-03 -0.11147851D-04  0.73174369D-05 -0.39392972D-15 -0.70629654D-15
  0.66353128D-04  0.57137278D-16  0.10378991D-15 -0.12129973D-03 -0.23966547D-17
 -0.86827407D-17  0.43366017D-04 -0.10194094D-03 -0.10194094D-03  0.20388189D-03
 -0.70007030D-16  0.27668252D-15 -0.39104421D-15  0.48462969D-04  0.48462969D-04
 -0.96925937D-04  0.19913267D-17 -0.11576755D-16  0.99366576D-17
END DATA
 TOTAL ENERGY =       -0.499821909409 THE VIRIAL(-V/T)=   2.00101739
