 TITLE
GAUSSIAN              1 MOL ORBITALS     54 PRIMITIVES        2 NUCLEI
  H    1    (CENTRE  1)   0.00000000  0.00000000  0.00000000  CHARGE =  1.0
  H    2    (CENTRE  2)   0.00000000  0.00000000 12.09424720  CHARGE =  0.0
CENTRE ASSIGNMENTS    1  1  1  1  1  1  1  1  1  1  1  1  1  1  1  1  1  1  1  1
CENTRE ASSIGNMENTS    1  1  1  1  1  1  1  2  2  2  2  2  2  2  2  2  2  2  2  2
CENTRE ASSIGNMENTS    2  2  2  2  2  2  2  2  2  2  2  2  2  2
TYPE ASSIGNMENTS      1  1  1  1  1  1  2  3  4  2  3  4  2  3  4  5  6  7  8  9
TYPE ASSIGNMENTS     10  5  6  7  8  9 10  1  1  1  1  1  1  2  3  4  2  3  4  2
TYPE ASSIGNMENTS      3  4  5  6  7  8  9 10  5  6  7  8  9 10
EXPONENTS  0.3387000D+02 0.5095000D+01 0.1159000D+01 0.3258000D+00 0.1027000D+00
EXPONENTS  0.2526000D-01 0.1407000D+01 0.1407000D+01 0.1407000D+01 0.3880000D+00
EXPONENTS  0.3880000D+00 0.3880000D+00 0.1020000D+00 0.1020000D+00 0.1020000D+00
EXPONENTS  0.1057000D+01 0.1057000D+01 0.1057000D+01 0.1057000D+01 0.1057000D+01
EXPONENTS  0.1057000D+01 0.2470000D+00 0.2470000D+00 0.2470000D+00 0.2470000D+00
EXPONENTS  0.2470000D+00 0.2470000D+00 0.3387000D+02 0.5095000D+01 0.1159000D+01
EXPONENTS  0.3258000D+00 0.1027000D+00 0.2526000D-01 0.1407000D+01 0.1407000D+01
EXPONENTS  0.1407000D+01 0.3880000D+00 0.3880000D+00 0.3880000D+00 0.1020000D+00
EXPONENTS  0.1020000D+00 0.1020000D+00 0.1057000D+01 0.1057000D+01 0.1057000D+01
EXPONENTS  0.1057000D+01 0.1057000D+01 0.1057000D+01 0.2470000D+00 0.2470000D+00
EXPONENTS  0.2470000D+00 0.2470000D+00 0.2470000D+00 0.2470000D+00
MO    1     MO 0.0        OCC NO =    1.0000000  ORB. ENERGY =   -0.499821
  0.60612155D-01  0.10931652D+00  0.16118714D+00  0.15560515D+00  0.48698217D-01
  0.35302147D-03  0.36309191D-16  0.59728790D-16 -0.17282644D-05 -0.48448617D-16
  0.54972679D-16  0.17745695D-05 -0.61532689D-17  0.16104855D-16 -0.10138634D-05
 -0.12168776D-06 -0.12168776D-06  0.24337552D-06 -0.26499511D-17 -0.75733086D-17
 -0.58698649D-17  0.56922426D-07  0.56922426D-07 -0.11384485D-06  0.59116887D-18
 -0.36286803D-17  0.10702628D-17 -0.32295159D-05 -0.58245650D-05 -0.85883177D-05
  0.32230503D-04 -0.41374594D-04  0.13410489D-04  0.10301061D-15  0.31039024D-16
 -0.24982699D-04  0.37933246D-17  0.49100653D-16  0.22887831D-04  0.12074395D-16
  0.21566550D-16 -0.66226831D-05  0.13217226D-05  0.13217226D-05 -0.26434451D-05
  0.51598759D-16 -0.16158307D-15 -0.41567790D-15 -0.37668583D-06 -0.37668583D-06
  0.75337165D-06 -0.16408244D-17  0.35883159D-17  0.11943807D-16
END DATA
 TOTAL ENERGY =       -0.499821199072 THE VIRIAL(-V/T)=   2.00102968
