 TITLE
GAUSSIAN              1 MOL ORBITALS     54 PRIMITIVES        2 NUCLEI
  H    1    (CENTRE  1)   0.00000000  0.00000000  0.00000000  CHARGE =  1.0
  H    2    (CENTRE  2)   0.00000000  0.00000000  0.18897261  CHARGE =  0.0
CENTRE ASSIGNMENTS    1  1  1  1  1  1  1  1  1  1  1  1  1  1  1  1  1  1  1  1
CENTRE ASSIGNMENTS    1  1  1  1  1  1  1  2  2  2  2  2  2  2  2  2  2  2  2  2
CENTRE ASSIGNMENTS    2  2  2  2  2  2  2  2  2  2  2  2  2  2
TYPE ASSIGNMENTS      1  1  1  1  1  1  2  3  4  2  3  4  2  3  4  5  6  7  8  9
TYPE ASSIGNMENTS     10  5  6  7  8  9 10  1  1  1  1  1  1  2  3  4  2  3  4  2
TYPE ASSIGNMENTS      3  4  5  6  7  8  9 10  5  6  7  8  9 10
EXPONENTS  0.3387000D+02 0.5095000D+01 0.1159000D+01 0.3258000D+00 0.1027000D+00
EXPONENTS  0.2526000D-01 0.1407000D+01 0.1407000D+01 0.1407000D+01 0.3880000D+00
EXPONENTS  0.3880000D+00 0.3880000D+00 0.1020000D+00 0.1020000D+00 0.1020000D+00
EXPONENTS  0.1057000D+01 0.1057000D+01 0.1057000D+01 0.1057000D+01 0.1057000D+01
EXPONENTS  0.1057000D+01 0.2470000D+00 0.2470000D+00 0.2470000D+00 0.2470000D+00
EXPONENTS  0.2470000D+00 0.2470000D+00 0.3387000D+02 0.5095000D+01 0.1159000D+01
EXPONENTS  0.3258000D+00 0.1027000D+00 0.2526000D-01 0.1407000D+01 0.1407000D+01
EXPONENTS  0.1407000D+01 0.3880000D+00 0.3880000D+00 0.3880000D+00 0.1020000D+00
EXPONENTS  0.1020000D+00 0.1020000D+00 0.1057000D+01 0.1057000D+01 0.1057000D+01
EXPONENTS  0.1057000D+01 0.1057000D+01 0.1057000D+01 0.2470000D+00 0.2470000D+00
EXPONENTS  0.2470000D+00 0.2470000D+00 0.2470000D+00 0.2470000D+00
MO    1     MO 0.0        OCC NO =    1.0000000  ORB. ENERGY =   -0.499823
  0.60185157D-01  0.10854641D+00  0.16005162D+00  0.15343889D+00  0.24988530D-01
  0.98630614D-04  0.41459303D-14  0.87504356D-14  0.66983927D-02  0.70744685D-14
 -0.23577829D-18  0.39019272D-02  0.17406027D-14  0.39772903D-15  0.24152435D-02
 -0.45541675D-03 -0.45541675D-03  0.91083350D-03 -0.34243753D-18  0.23342159D-14
  0.11167094D-14 -0.88815422D-04 -0.88815422D-04  0.17763084D-03  0.50260285D-16
  0.21715396D-15  0.79170265D-18 -0.33274562D-04 -0.60012043D-04 -0.88487722D-04
  0.15846992D-02  0.23550064D-01  0.30982902D-03 -0.43025860D-14 -0.87396017D-14
 -0.71563192D-02 -0.70427581D-14 -0.13892769D-17 -0.41237181D-02 -0.17341701D-14
 -0.39971706D-15 -0.33506257D-02 -0.50701368D-03 -0.50701368D-03  0.10140274D-02
 -0.27186501D-17  0.33974516D-15  0.15390888D-14 -0.72793861D-04 -0.72793861D-04
  0.14558772D-03 -0.60287883D-16  0.36007123D-15  0.92445214D-17
END DATA
 TOTAL ENERGY =       -0.499823489699 THE VIRIAL(-V/T)=   2.00103815
