 TITLE
GAUSSIAN              1 MOL ORBITALS     54 PRIMITIVES        2 NUCLEI
  H    1    (CENTRE  1)   0.00000000  0.00000000  0.00000000  CHARGE =  1.0
  H    2    (CENTRE  2)   0.00000000  0.00000000  8.50376756  CHARGE =  0.0
CENTRE ASSIGNMENTS    1  1  1  1  1  1  1  1  1  1  1  1  1  1  1  1  1  1  1  1
CENTRE ASSIGNMENTS    1  1  1  1  1  1  1  2  2  2  2  2  2  2  2  2  2  2  2  2
CENTRE ASSIGNMENTS    2  2  2  2  2  2  2  2  2  2  2  2  2  2
TYPE ASSIGNMENTS      1  1  1  1  1  1  2  3  4  2  3  4  2  3  4  5  6  7  8  9
TYPE ASSIGNMENTS     10  5  6  7  8  9 10  1  1  1  1  1  1  2  3  4  2  3  4  2
TYPE ASSIGNMENTS      3  4  5  6  7  8  9 10  5  6  7  8  9 10
EXPONENTS  0.3387000D+02 0.5095000D+01 0.1159000D+01 0.3258000D+00 0.1027000D+00
EXPONENTS  0.2526000D-01 0.1407000D+01 0.1407000D+01 0.1407000D+01 0.3880000D+00
EXPONENTS  0.3880000D+00 0.3880000D+00 0.1020000D+00 0.1020000D+00 0.1020000D+00
EXPONENTS  0.1057000D+01 0.1057000D+01 0.1057000D+01 0.1057000D+01 0.1057000D+01
EXPONENTS  0.1057000D+01 0.2470000D+00 0.2470000D+00 0.2470000D+00 0.2470000D+00
EXPONENTS  0.2470000D+00 0.2470000D+00 0.3387000D+02 0.5095000D+01 0.1159000D+01
EXPONENTS  0.3258000D+00 0.1027000D+00 0.2526000D-01 0.1407000D+01 0.1407000D+01
EXPONENTS  0.1407000D+01 0.3880000D+00 0.3880000D+00 0.3880000D+00 0.1020000D+00
EXPONENTS  0.1020000D+00 0.1020000D+00 0.1057000D+01 0.1057000D+01 0.1057000D+01
EXPONENTS  0.1057000D+01 0.1057000D+01 0.1057000D+01 0.2470000D+00 0.2470000D+00
EXPONENTS  0.2470000D+00 0.2470000D+00 0.2470000D+00 0.2470000D+00
MO    1     MO 0.0        OCC NO =    1.0000000  ORB. ENERGY =   -0.499821
  0.60613862D-01  0.10931960D+00  0.16119168D+00  0.15558835D+00  0.48720302D-01
  0.34150265D-03  0.61434046D-16  0.46430313D-16 -0.14391531D-04  0.18897063D-16
 -0.21772317D-16  0.14343993D-04 -0.11007404D-16 -0.43730810D-17 -0.72606181D-05
 -0.72943290D-06 -0.72943290D-06  0.14588658D-05 -0.40514347D-17 -0.23665323D-17
 -0.42079564D-17  0.26305035D-06  0.26305035D-06 -0.52610071D-06  0.39580263D-18
  0.18060837D-18  0.14701336D-17 -0.54305172D-06 -0.97941614D-06 -0.14441485D-05
 -0.30190787D-04  0.55613546D-04  0.63796857D-05  0.14014065D-15 -0.19095540D-15
  0.64273094D-04 -0.96905571D-17  0.32063032D-16 -0.46503299D-04  0.48424538D-17
  0.30907746D-17 -0.30234269D-04  0.28913161D-06  0.28913161D-06 -0.57826322D-06
  0.64105910D-16 -0.19025938D-15 -0.77758042D-16 -0.59959439D-05 -0.59959439D-05
  0.11991888D-04 -0.18368564D-17  0.54364830D-17  0.21879291D-17
END DATA
 TOTAL ENERGY =       -0.499821388994 THE VIRIAL(-V/T)=   2.00103040
