 TITLE
GAUSSIAN              1 MOL ORBITALS     54 PRIMITIVES        2 NUCLEI
  H    1    (CENTRE  1)   0.00000000  0.00000000  0.00000000  CHARGE =  1.0
  H    2    (CENTRE  2)   0.00000000  0.00000000  6.99198666  CHARGE =  0.0
CENTRE ASSIGNMENTS    1  1  1  1  1  1  1  1  1  1  1  1  1  1  1  1  1  1  1  1
CENTRE ASSIGNMENTS    1  1  1  1  1  1  1  2  2  2  2  2  2  2  2  2  2  2  2  2
CENTRE ASSIGNMENTS    2  2  2  2  2  2  2  2  2  2  2  2  2  2
TYPE ASSIGNMENTS      1  1  1  1  1  1  2  3  4  2  3  4  2  3  4  5  6  7  8  9
TYPE ASSIGNMENTS     10  5  6  7  8  9 10  1  1  1  1  1  1  2  3  4  2  3  4  2
TYPE ASSIGNMENTS      3  4  5  6  7  8  9 10  5  6  7  8  9 10
EXPONENTS  0.3387000D+02 0.5095000D+01 0.1159000D+01 0.3258000D+00 0.1027000D+00
EXPONENTS  0.2526000D-01 0.1407000D+01 0.1407000D+01 0.1407000D+01 0.3880000D+00
EXPONENTS  0.3880000D+00 0.3880000D+00 0.1020000D+00 0.1020000D+00 0.1020000D+00
EXPONENTS  0.1057000D+01 0.1057000D+01 0.1057000D+01 0.1057000D+01 0.1057000D+01
EXPONENTS  0.1057000D+01 0.2470000D+00 0.2470000D+00 0.2470000D+00 0.2470000D+00
EXPONENTS  0.2470000D+00 0.2470000D+00 0.3387000D+02 0.5095000D+01 0.1159000D+01
EXPONENTS  0.3258000D+00 0.1027000D+00 0.2526000D-01 0.1407000D+01 0.1407000D+01
EXPONENTS  0.1407000D+01 0.3880000D+00 0.3880000D+00 0.3880000D+00 0.1020000D+00
EXPONENTS  0.1020000D+00 0.1020000D+00 0.1057000D+01 0.1057000D+01 0.1057000D+01
EXPONENTS  0.1057000D+01 0.1057000D+01 0.1057000D+01 0.2470000D+00 0.2470000D+00
EXPONENTS  0.2470000D+00 0.2470000D+00 0.2470000D+00 0.2470000D+00
MO    1     MO 0.0        OCC NO =    1.0000000  ORB. ENERGY =   -0.499822
  0.60618303D-01  0.10932761D+00  0.16120349D+00  0.15556037D+00  0.48726400D-01
  0.35358163D-03 -0.62278745D-16 -0.14952118D-16  0.55506786D-04  0.17371679D-16
  0.50402226D-17 -0.56397415D-04 -0.47417155D-17 -0.25121477D-17  0.28560912D-04
  0.98390518D-05  0.98390518D-05 -0.19678104D-04 -0.33630065D-17 -0.45934636D-17
  0.66265837D-17 -0.44118457D-05 -0.44118457D-05  0.88236913D-05 -0.33716184D-19
  0.95429475D-18  0.10515070D-17 -0.13739522D-04 -0.24779794D-04 -0.36537792D-04
  0.15432705D-03 -0.23821105D-04  0.71085197D-05  0.33155148D-16  0.13843408D-15
  0.26576847D-04 -0.14433665D-16 -0.21849738D-16 -0.95000305D-04  0.26893508D-17
  0.90232258D-18  0.54414938D-04 -0.10604867D-03 -0.10604867D-03  0.21209733D-03
  0.25067814D-15 -0.11605178D-15  0.11482941D-15  0.55771020D-04  0.55771020D-04
 -0.11154204D-03 -0.68793064D-17  0.93612215D-18 -0.60794016D-17
END DATA
 TOTAL ENERGY =       -0.499822090533 THE VIRIAL(-V/T)=   2.00101573
