 TITLE
GAUSSIAN              1 MOL ORBITALS     54 PRIMITIVES        2 NUCLEI
  H    1    (CENTRE  1)   0.00000000  0.00000000  0.00000000  CHARGE =  1.0
  H    2    (CENTRE  2)   0.00000000  0.00000000  2.83458919  CHARGE =  0.0
CENTRE ASSIGNMENTS    1  1  1  1  1  1  1  1  1  1  1  1  1  1  1  1  1  1  1  1
CENTRE ASSIGNMENTS    1  1  1  1  1  1  1  2  2  2  2  2  2  2  2  2  2  2  2  2
CENTRE ASSIGNMENTS    2  2  2  2  2  2  2  2  2  2  2  2  2  2
TYPE ASSIGNMENTS      1  1  1  1  1  1  2  3  4  2  3  4  2  3  4  5  6  7  8  9
TYPE ASSIGNMENTS     10  5  6  7  8  9 10  1  1  1  1  1  1  2  3  4  2  3  4  2
TYPE ASSIGNMENTS      3  4  5  6  7  8  9 10  5  6  7  8  9 10
EXPONENTS  0.3387000D+02 0.5095000D+01 0.1159000D+01 0.3258000D+00 0.1027000D+00
EXPONENTS  0.2526000D-01 0.1407000D+01 0.1407000D+01 0.1407000D+01 0.3880000D+00
EXPONENTS  0.3880000D+00 0.3880000D+00 0.1020000D+00 0.1020000D+00 0.1020000D+00
EXPONENTS  0.1057000D+01 0.1057000D+01 0.1057000D+01 0.1057000D+01 0.1057000D+01
EXPONENTS  0.1057000D+01 0.2470000D+00 0.2470000D+00 0.2470000D+00 0.2470000D+00
EXPONENTS  0.2470000D+00 0.2470000D+00 0.3387000D+02 0.5095000D+01 0.1159000D+01
EXPONENTS  0.3258000D+00 0.1027000D+00 0.2526000D-01 0.1407000D+01 0.1407000D+01
EXPONENTS  0.1407000D+01 0.3880000D+00 0.3880000D+00 0.3880000D+00 0.1020000D+00
EXPONENTS  0.1020000D+00 0.1020000D+00 0.1057000D+01 0.1057000D+01 0.1057000D+01
EXPONENTS  0.1057000D+01 0.1057000D+01 0.1057000D+01 0.2470000D+00 0.2470000D+00
EXPONENTS  0.2470000D+00 0.2470000D+00 0.2470000D+00 0.2470000D+00
MO    1     MO 0.0        OCC NO =    1.0000000  ORB. ENERGY =   -0.499826
  0.60636640D-01  0.10936068D+00  0.16125225D+00  0.15537501D+00  0.51632730D-01
  0.42459843D-03 -0.34996375D-17 -0.65076148D-16 -0.15830414D-03  0.41947504D-16
 -0.10073474D-16  0.31377076D-03 -0.20656169D-16  0.10236185D-16  0.97174363D-03
  0.64496520D-04  0.64496520D-04 -0.12899304D-03  0.72254030D-17 -0.16505261D-16
 -0.19818070D-16 -0.84136948D-04 -0.84136948D-04  0.16827390D-03  0.45159788D-18
  0.39311910D-16 -0.13186899D-16 -0.26283729D-04 -0.47403789D-04 -0.69896859D-04
  0.72637861D-03 -0.32611819D-02 -0.15813541D-04  0.43453178D-15 -0.14287354D-15
  0.87240324D-03 -0.10500601D-15  0.32028388D-17 -0.95421423D-06  0.15181140D-16
  0.11106765D-17  0.96451683D-03  0.20478574D-03  0.20478574D-03 -0.40957148D-03
 -0.85251265D-17 -0.15858020D-15  0.82280486D-16  0.11382109D-03  0.11382109D-03
 -0.22764217D-03 -0.46642794D-17  0.24444795D-16 -0.17621659D-16
END DATA
 TOTAL ENERGY =       -0.499825954865 THE VIRIAL(-V/T)=   2.00097428
