 TITLE
GAUSSIAN              1 MOL ORBITALS     54 PRIMITIVES        2 NUCLEI
  H    1    (CENTRE  1)   0.00000000  0.00000000  0.00000000  CHARGE =  1.0
  H    2    (CENTRE  2)   0.00000000  0.00000000 10.77143891  CHARGE =  0.0
CENTRE ASSIGNMENTS    1  1  1  1  1  1  1  1  1  1  1  1  1  1  1  1  1  1  1  1
CENTRE ASSIGNMENTS    1  1  1  1  1  1  1  2  2  2  2  2  2  2  2  2  2  2  2  2
CENTRE ASSIGNMENTS    2  2  2  2  2  2  2  2  2  2  2  2  2  2
TYPE ASSIGNMENTS      1  1  1  1  1  1  2  3  4  2  3  4  2  3  4  5  6  7  8  9
TYPE ASSIGNMENTS     10  5  6  7  8  9 10  1  1  1  1  1  1  2  3  4  2  3  4  2
TYPE ASSIGNMENTS      3  4  5  6  7  8  9 10  5  6  7  8  9 10
EXPONENTS  0.3387000D+02 0.5095000D+01 0.1159000D+01 0.3258000D+00 0.1027000D+00
EXPONENTS  0.2526000D-01 0.1407000D+01 0.1407000D+01 0.1407000D+01 0.3880000D+00
EXPONENTS  0.3880000D+00 0.3880000D+00 0.1020000D+00 0.1020000D+00 0.1020000D+00
EXPONENTS  0.1057000D+01 0.1057000D+01 0.1057000D+01 0.1057000D+01 0.1057000D+01
EXPONENTS  0.1057000D+01 0.2470000D+00 0.2470000D+00 0.2470000D+00 0.2470000D+00
EXPONENTS  0.2470000D+00 0.2470000D+00 0.3387000D+02 0.5095000D+01 0.1159000D+01
EXPONENTS  0.3258000D+00 0.1027000D+00 0.2526000D-01 0.1407000D+01 0.1407000D+01
EXPONENTS  0.1407000D+01 0.3880000D+00 0.3880000D+00 0.3880000D+00 0.1020000D+00
EXPONENTS  0.1020000D+00 0.1020000D+00 0.1057000D+01 0.1057000D+01 0.1057000D+01
EXPONENTS  0.1057000D+01 0.1057000D+01 0.1057000D+01 0.2470000D+00 0.2470000D+00
EXPONENTS  0.2470000D+00 0.2470000D+00 0.2470000D+00 0.2470000D+00
MO    1     MO 0.0        OCC NO =    1.0000000  ORB. ENERGY =   -0.499821
  0.60613144D-01  0.10931830D+00  0.16118977D+00  0.15559681D+00  0.48708121D-01
  0.34833470D-03 -0.16196052D-16 -0.26573709D-16 -0.37459669D-05  0.60845604D-17
  0.29481373D-17  0.38236892D-05 -0.11962885D-17 -0.54722229D-17 -0.21511055D-05
 -0.16505680D-06 -0.16505680D-06  0.33011359D-06  0.33204112D-18  0.98358226D-18
  0.17877052D-17  0.70848474D-07  0.70848474D-07 -0.14169695D-06 -0.92169877D-20
  0.21982327D-18  0.23690090D-18  0.23110109D-05  0.41680034D-05  0.61457185D-05
 -0.10463024D-04 -0.18013919D-04  0.14614582D-04 -0.19397321D-15  0.18909019D-15
 -0.71895495D-04  0.34071755D-16 -0.22958240D-16  0.72037224D-04 -0.57222476D-17
  0.50976334D-17 -0.31797777D-04  0.15062541D-04  0.15062541D-04 -0.30125081D-04
  0.87080157D-17  0.46480397D-15 -0.16614170D-17 -0.65321904D-05 -0.65321904D-05
  0.13064381D-04  0.11592262D-18 -0.13330033D-16 -0.23361180D-18
END DATA
 TOTAL ENERGY =       -0.499821275825 THE VIRIAL(-V/T)=   2.00102661
