 TITLE
GAUSSIAN              1 MOL ORBITALS     54 PRIMITIVES        2 NUCLEI
  H    1    (CENTRE  1)   0.00000000  0.00000000  0.00000000  CHARGE =  1.0
  H    2    (CENTRE  2)   0.00000000  0.00000000  4.53534270  CHARGE =  0.0
CENTRE ASSIGNMENTS    1  1  1  1  1  1  1  1  1  1  1  1  1  1  1  1  1  1  1  1
CENTRE ASSIGNMENTS    1  1  1  1  1  1  1  2  2  2  2  2  2  2  2  2  2  2  2  2
CENTRE ASSIGNMENTS    2  2  2  2  2  2  2  2  2  2  2  2  2  2
TYPE ASSIGNMENTS      1  1  1  1  1  1  2  3  4  2  3  4  2  3  4  5  6  7  8  9
TYPE ASSIGNMENTS     10  5  6  7  8  9 10  1  1  1  1  1  1  2  3  4  2  3  4  2
TYPE ASSIGNMENTS      3  4  5  6  7  8  9 10  5  6  7  8  9 10
EXPONENTS  0.3387000D+02 0.5095000D+01 0.1159000D+01 0.3258000D+00 0.1027000D+00
EXPONENTS  0.2526000D-01 0.1407000D+01 0.1407000D+01 0.1407000D+01 0.3880000D+00
EXPONENTS  0.3880000D+00 0.3880000D+00 0.1020000D+00 0.1020000D+00 0.1020000D+00
EXPONENTS  0.1057000D+01 0.1057000D+01 0.1057000D+01 0.1057000D+01 0.1057000D+01
EXPONENTS  0.1057000D+01 0.2470000D+00 0.2470000D+00 0.2470000D+00 0.2470000D+00
EXPONENTS  0.2470000D+00 0.2470000D+00 0.3387000D+02 0.5095000D+01 0.1159000D+01
EXPONENTS  0.3258000D+00 0.1027000D+00 0.2526000D-01 0.1407000D+01 0.1407000D+01
EXPONENTS  0.1407000D+01 0.3880000D+00 0.3880000D+00 0.3880000D+00 0.1020000D+00
EXPONENTS  0.1020000D+00 0.1020000D+00 0.1057000D+01 0.1057000D+01 0.1057000D+01
EXPONENTS  0.1057000D+01 0.1057000D+01 0.1057000D+01 0.2470000D+00 0.2470000D+00
EXPONENTS  0.2470000D+00 0.2470000D+00 0.2470000D+00 0.2470000D+00
MO    1     MO 0.0        OCC NO =    1.0000000  ORB. ENERGY =   -0.499824
  0.60631141D-01  0.10935076D+00  0.16123763D+00  0.15544712D+00  0.48904748D-01
  0.37322798D-03  0.14126388D-16 -0.50002565D-16  0.14922777D-03  0.33622098D-16
  0.18479576D-16 -0.14569081D-03 -0.61200927D-17 -0.26250168D-17  0.14272246D-03
  0.16628306D-04  0.16628306D-04 -0.33256611D-04 -0.12558921D-16  0.11429381D-15
 -0.19633134D-15 -0.11054268D-04 -0.11054268D-04  0.22108537D-04  0.39871111D-18
 -0.11369162D-16  0.10356356D-16 -0.30668866D-04 -0.55312562D-04 -0.81558341D-04
 -0.43636217D-04 -0.21804881D-03  0.36474588D-05 -0.20098939D-15 -0.60831921D-16
  0.26422154D-03  0.14504370D-16 -0.23671653D-16 -0.24481766D-03  0.64742186D-17
  0.69575733D-17  0.19772317D-03 -0.13040240D-03 -0.13040240D-03  0.26080481D-03
  0.16011573D-15  0.65195096D-15 -0.10235520D-14 -0.46806956D-04 -0.46806956D-04
  0.93613913D-04 -0.53671849D-17 -0.26762931D-16  0.29523133D-16
END DATA
 TOTAL ENERGY =       -0.499823703294 THE VIRIAL(-V/T)=   2.00099168
