 TITLE
GAUSSIAN              1 MOL ORBITALS     54 PRIMITIVES        2 NUCLEI
  H    1    (CENTRE  1)   0.00000000  0.00000000  0.00000000  CHARGE =  1.0
  H    2    (CENTRE  2)   0.00000000  0.00000000 11.71630197  CHARGE =  0.0
CENTRE ASSIGNMENTS    1  1  1  1  1  1  1  1  1  1  1  1  1  1  1  1  1  1  1  1
CENTRE ASSIGNMENTS    1  1  1  1  1  1  1  2  2  2  2  2  2  2  2  2  2  2  2  2
CENTRE ASSIGNMENTS    2  2  2  2  2  2  2  2  2  2  2  2  2  2
TYPE ASSIGNMENTS      1  1  1  1  1  1  2  3  4  2  3  4  2  3  4  5  6  7  8  9
TYPE ASSIGNMENTS     10  5  6  7  8  9 10  1  1  1  1  1  1  2  3  4  2  3  4  2
TYPE ASSIGNMENTS      3  4  5  6  7  8  9 10  5  6  7  8  9 10
EXPONENTS  0.3387000D+02 0.5095000D+01 0.1159000D+01 0.3258000D+00 0.1027000D+00
EXPONENTS  0.2526000D-01 0.1407000D+01 0.1407000D+01 0.1407000D+01 0.3880000D+00
EXPONENTS  0.3880000D+00 0.3880000D+00 0.1020000D+00 0.1020000D+00 0.1020000D+00
EXPONENTS  0.1057000D+01 0.1057000D+01 0.1057000D+01 0.1057000D+01 0.1057000D+01
EXPONENTS  0.1057000D+01 0.2470000D+00 0.2470000D+00 0.2470000D+00 0.2470000D+00
EXPONENTS  0.2470000D+00 0.2470000D+00 0.3387000D+02 0.5095000D+01 0.1159000D+01
EXPONENTS  0.3258000D+00 0.1027000D+00 0.2526000D-01 0.1407000D+01 0.1407000D+01
EXPONENTS  0.1407000D+01 0.3880000D+00 0.3880000D+00 0.3880000D+00 0.1020000D+00
EXPONENTS  0.1020000D+00 0.1020000D+00 0.1057000D+01 0.1057000D+01 0.1057000D+01
EXPONENTS  0.1057000D+01 0.1057000D+01 0.1057000D+01 0.2470000D+00 0.2470000D+00
EXPONENTS  0.2470000D+00 0.2470000D+00 0.2470000D+00 0.2470000D+00
MO    1     MO 0.0        OCC NO =    1.0000000  ORB. ENERGY =   -0.499821
  0.60612362D-01  0.10931689D+00  0.16118769D+00  0.15560344D+00  0.48700287D-01
  0.35199957D-03 -0.22278723D-15  0.14766827D-15 -0.21995438D-05 -0.13805642D-17
 -0.73080000D-17  0.22612346D-05 -0.83845274D-17 -0.39621411D-17 -0.12978023D-05
 -0.14927409D-06 -0.14927409D-06  0.29854819D-06  0.13258877D-17 -0.29760242D-16
 -0.10676160D-16  0.69770645D-07  0.69770645D-07 -0.13954129D-06 -0.43377308D-18
  0.45011359D-17  0.25076985D-17 -0.22360689D-05 -0.40328423D-05 -0.59464236D-05
  0.25482763D-04 -0.39437313D-04  0.14479763D-04 -0.69265548D-16 -0.25407681D-15
 -0.38337522D-04  0.54825841D-17  0.41475126D-16  0.36160247D-04  0.10512714D-17
 -0.21200984D-18 -0.12509414D-04  0.38023807D-05  0.38023807D-05 -0.76047614D-05
  0.14820944D-15 -0.47704808D-15  0.52092936D-15 -0.14376266D-05 -0.14376266D-05
  0.28752531D-05 -0.40004773D-17  0.16176142D-16 -0.12633658D-16
END DATA
 TOTAL ENERGY =       -0.499821209020 THE VIRIAL(-V/T)=   2.00102884
