 TITLE
GAUSSIAN              1 MOL ORBITALS     54 PRIMITIVES        2 NUCLEI
  H    1    (CENTRE  1)   0.00000000  0.00000000  0.00000000  CHARGE =  1.0
  H    2    (CENTRE  2)   0.00000000  0.00000000 10.58246630  CHARGE =  0.0
CENTRE ASSIGNMENTS    1  1  1  1  1  1  1  1  1  1  1  1  1  1  1  1  1  1  1  1
CENTRE ASSIGNMENTS    1  1  1  1  1  1  1  2  2  2  2  2  2  2  2  2  2  2  2  2
CENTRE ASSIGNMENTS    2  2  2  2  2  2  2  2  2  2  2  2  2  2
TYPE ASSIGNMENTS      1  1  1  1  1  1  2  3  4  2  3  4  2  3  4  5  6  7  8  9
TYPE ASSIGNMENTS     10  5  6  7  8  9 10  1  1  1  1  1  1  2  3  4  2  3  4  2
TYPE ASSIGNMENTS      3  4  5  6  7  8  9 10  5  6  7  8  9 10
EXPONENTS  0.3387000D+02 0.5095000D+01 0.1159000D+01 0.3258000D+00 0.1027000D+00
EXPONENTS  0.2526000D-01 0.1407000D+01 0.1407000D+01 0.1407000D+01 0.3880000D+00
EXPONENTS  0.3880000D+00 0.3880000D+00 0.1020000D+00 0.1020000D+00 0.1020000D+00
EXPONENTS  0.1057000D+01 0.1057000D+01 0.1057000D+01 0.1057000D+01 0.1057000D+01
EXPONENTS  0.1057000D+01 0.2470000D+00 0.2470000D+00 0.2470000D+00 0.2470000D+00
EXPONENTS  0.2470000D+00 0.2470000D+00 0.3387000D+02 0.5095000D+01 0.1159000D+01
EXPONENTS  0.3258000D+00 0.1027000D+00 0.2526000D-01 0.1407000D+01 0.1407000D+01
EXPONENTS  0.1407000D+01 0.3880000D+00 0.3880000D+00 0.3880000D+00 0.1020000D+00
EXPONENTS  0.1020000D+00 0.1020000D+00 0.1057000D+01 0.1057000D+01 0.1057000D+01
EXPONENTS  0.1057000D+01 0.1057000D+01 0.1057000D+01 0.2470000D+00 0.2470000D+00
EXPONENTS  0.2470000D+00 0.2470000D+00 0.2470000D+00 0.2470000D+00
MO    1     MO 0.0        OCC NO =    1.0000000  ORB. ENERGY =   -0.499821
  0.60613340D-01  0.10931866D+00  0.16119029D+00  0.15559507D+00  0.48710153D-01
  0.34741418D-03 -0.26112942D-16  0.55486193D-17 -0.42077606D-05  0.24559819D-16
 -0.18245103D-16  0.42773988D-05 -0.44727346D-17  0.14351546D-17 -0.23762502D-05
 -0.15462835D-06 -0.15462835D-06  0.30925670D-06 -0.59318400D-17  0.48883448D-17
 -0.35474517D-17  0.62284766D-07  0.62284766D-07 -0.12456953D-06  0.10283918D-18
 -0.29980273D-18  0.82008104D-18  0.34261904D-05  0.61792756D-05  0.91113382D-05
 -0.20243621D-04 -0.10812403D-04  0.14148804D-04 -0.18138575D-17 -0.29750128D-16
 -0.76083650D-04 -0.80762569D-17  0.34169499D-16  0.77404749D-04  0.17932965D-17
  0.26822204D-18 -0.35861940D-04  0.18044327D-04  0.18044327D-04 -0.36088653D-04
 -0.16377459D-15  0.19681768D-15  0.11529873D-15 -0.79596866D-05 -0.79596866D-05
  0.15919373D-04  0.45314796D-17 -0.53500998D-17 -0.29793884D-17
END DATA
 TOTAL ENERGY =       -0.499821299141 THE VIRIAL(-V/T)=   2.00102634
