 TITLE
GAUSSIAN              1 MOL ORBITALS     54 PRIMITIVES        2 NUCLEI
  H    1    (CENTRE  1)   0.00000000  0.00000000  0.00000000  CHARGE =  1.0
  H    2    (CENTRE  2)   0.00000000  0.00000000 12.85013765  CHARGE =  0.0
CENTRE ASSIGNMENTS    1  1  1  1  1  1  1  1  1  1  1  1  1  1  1  1  1  1  1  1
CENTRE ASSIGNMENTS    1  1  1  1  1  1  1  2  2  2  2  2  2  2  2  2  2  2  2  2
CENTRE ASSIGNMENTS    2  2  2  2  2  2  2  2  2  2  2  2  2  2
TYPE ASSIGNMENTS      1  1  1  1  1  1  2  3  4  2  3  4  2  3  4  5  6  7  8  9
TYPE ASSIGNMENTS     10  5  6  7  8  9 10  1  1  1  1  1  1  2  3  4  2  3  4  2
TYPE ASSIGNMENTS      3  4  5  6  7  8  9 10  5  6  7  8  9 10
EXPONENTS  0.3387000D+02 0.5095000D+01 0.1159000D+01 0.3258000D+00 0.1027000D+00
EXPONENTS  0.2526000D-01 0.1407000D+01 0.1407000D+01 0.1407000D+01 0.3880000D+00
EXPONENTS  0.3880000D+00 0.3880000D+00 0.1020000D+00 0.1020000D+00 0.1020000D+00
EXPONENTS  0.1057000D+01 0.1057000D+01 0.1057000D+01 0.1057000D+01 0.1057000D+01
EXPONENTS  0.1057000D+01 0.2470000D+00 0.2470000D+00 0.2470000D+00 0.2470000D+00
EXPONENTS  0.2470000D+00 0.2470000D+00 0.3387000D+02 0.5095000D+01 0.1159000D+01
EXPONENTS  0.3258000D+00 0.1027000D+00 0.2526000D-01 0.1407000D+01 0.1407000D+01
EXPONENTS  0.1407000D+01 0.3880000D+00 0.3880000D+00 0.3880000D+00 0.1020000D+00
EXPONENTS  0.1020000D+00 0.1020000D+00 0.1057000D+01 0.1057000D+01 0.1057000D+01
EXPONENTS  0.1057000D+01 0.1057000D+01 0.1057000D+01 0.2470000D+00 0.2470000D+00
EXPONENTS  0.2470000D+00 0.2470000D+00 0.2470000D+00 0.2470000D+00
MO    1     MO 0.0        OCC NO =    1.0000000  ORB. ENERGY =   -0.499821
  0.60611878D-01  0.10931602D+00  0.16118640D+00  0.15560743D+00  0.48695372D-01
  0.35446620D-03  0.18757085D-16 -0.20215415D-16 -0.94789289D-06  0.18711001D-16
  0.11184840D-16  0.96906215D-06 -0.30203714D-17 -0.43195181D-17 -0.54545235D-06
 -0.65757413D-07 -0.65757413D-07  0.13151483D-06 -0.25572609D-19  0.11806421D-17
  0.49664096D-17  0.30400530D-07  0.30400530D-07 -0.60801060D-07  0.33370198D-19
 -0.21898745D-18 -0.30174105D-19 -0.38535725D-05 -0.69500767D-05 -0.10247884D-04
  0.34728198D-04 -0.37264462D-04  0.10248971D-04 -0.37000961D-16 -0.85328864D-16
 -0.51699321D-05  0.23136166D-16  0.34696867D-16  0.37643856D-05 -0.49533966D-17
 -0.71690450D-17  0.10959125D-05 -0.10733692D-05 -0.10733692D-05  0.21467385D-05
  0.69013491D-16  0.13861054D-15  0.11035753D-15  0.60060931D-06  0.60060931D-06
 -0.12012186D-05 -0.19359954D-17 -0.40038088D-17 -0.20460461D-17
END DATA
 TOTAL ENERGY =       -0.499821189656 THE VIRIAL(-V/T)=   2.00103087
