 TITLE
GAUSSIAN              1 MOL ORBITALS     54 PRIMITIVES        2 NUCLEI
  H    1    (CENTRE  1)   0.00000000  0.00000000  0.00000000  CHARGE =  1.0
  H    2    (CENTRE  2)   0.00000000  0.00000000  2.64561657  CHARGE =  0.0
CENTRE ASSIGNMENTS    1  1  1  1  1  1  1  1  1  1  1  1  1  1  1  1  1  1  1  1
CENTRE ASSIGNMENTS    1  1  1  1  1  1  1  2  2  2  2  2  2  2  2  2  2  2  2  2
CENTRE ASSIGNMENTS    2  2  2  2  2  2  2  2  2  2  2  2  2  2
TYPE ASSIGNMENTS      1  1  1  1  1  1  2  3  4  2  3  4  2  3  4  5  6  7  8  9
TYPE ASSIGNMENTS     10  5  6  7  8  9 10  1  1  1  1  1  1  2  3  4  2  3  4  2
TYPE ASSIGNMENTS      3  4  5  6  7  8  9 10  5  6  7  8  9 10
EXPONENTS  0.3387000D+02 0.5095000D+01 0.1159000D+01 0.3258000D+00 0.1027000D+00
EXPONENTS  0.2526000D-01 0.1407000D+01 0.1407000D+01 0.1407000D+01 0.3880000D+00
EXPONENTS  0.3880000D+00 0.3880000D+00 0.1020000D+00 0.1020000D+00 0.1020000D+00
EXPONENTS  0.1057000D+01 0.1057000D+01 0.1057000D+01 0.1057000D+01 0.1057000D+01
EXPONENTS  0.1057000D+01 0.2470000D+00 0.2470000D+00 0.2470000D+00 0.2470000D+00
EXPONENTS  0.2470000D+00 0.2470000D+00 0.3387000D+02 0.5095000D+01 0.1159000D+01
EXPONENTS  0.3258000D+00 0.1027000D+00 0.2526000D-01 0.1407000D+01 0.1407000D+01
EXPONENTS  0.1407000D+01 0.3880000D+00 0.3880000D+00 0.3880000D+00 0.1020000D+00
EXPONENTS  0.1020000D+00 0.1020000D+00 0.1057000D+01 0.1057000D+01 0.1057000D+01
EXPONENTS  0.1057000D+01 0.1057000D+01 0.1057000D+01 0.2470000D+00 0.2470000D+00
EXPONENTS  0.2470000D+00 0.2470000D+00 0.2470000D+00 0.2470000D+00
MO    1     MO 0.0        OCC NO =    1.0000000  ORB. ENERGY =   -0.499826
  0.60627702D-01  0.10934456D+00  0.16122849D+00  0.15564394D+00  0.52624883D-01
  0.43953281D-03 -0.10294564D-15 -0.55969634D-16 -0.20674974D-03 -0.92173707D-16
  0.91187044D-17  0.53684001D-03 -0.39752937D-16 -0.19093297D-16  0.11829626D-02
  0.42271230D-04  0.42271230D-04 -0.84542459D-04 -0.59083835D-17 -0.12454510D-16
 -0.63688458D-16 -0.84852256D-04 -0.84852256D-04  0.16970451D-03 -0.46706765D-18
 -0.37637548D-16 -0.97709740D-17 -0.69613916D-04 -0.12555156D-03 -0.18512571D-03
  0.82632284D-03 -0.43373520D-02 -0.26788564D-04  0.31876973D-15 -0.23149164D-15
  0.71728120D-03 -0.42170216D-16  0.10834876D-16  0.32013326D-03 -0.14434568D-16
  0.14653016D-16  0.11996275D-02 -0.29664521D-04 -0.29664521D-04  0.59329041D-04
 -0.61466589D-16  0.10574526D-15 -0.20920411D-16  0.17268338D-03  0.17268338D-03
 -0.34536675D-03 -0.84559636D-18 -0.56726834D-17 -0.10746014D-16
END DATA
 TOTAL ENERGY =       -0.499826374150 THE VIRIAL(-V/T)=   2.00097080
