 TITLE
GAUSSIAN              1 MOL ORBITALS     54 PRIMITIVES        2 NUCLEI
  H    1    (CENTRE  1)   0.00000000  0.00000000  0.00000000  CHARGE =  1.0
  H    2    (CENTRE  2)   0.00000000  0.00000000 12.47219242  CHARGE =  0.0
CENTRE ASSIGNMENTS    1  1  1  1  1  1  1  1  1  1  1  1  1  1  1  1  1  1  1  1
CENTRE ASSIGNMENTS    1  1  1  1  1  1  1  2  2  2  2  2  2  2  2  2  2  2  2  2
CENTRE ASSIGNMENTS    2  2  2  2  2  2  2  2  2  2  2  2  2  2
TYPE ASSIGNMENTS      1  1  1  1  1  1  2  3  4  2  3  4  2  3  4  5  6  7  8  9
TYPE ASSIGNMENTS     10  5  6  7  8  9 10  1  1  1  1  1  1  2  3  4  2  3  4  2
TYPE ASSIGNMENTS      3  4  5  6  7  8  9 10  5  6  7  8  9 10
EXPONENTS  0.3387000D+02 0.5095000D+01 0.1159000D+01 0.3258000D+00 0.1027000D+00
EXPONENTS  0.2526000D-01 0.1407000D+01 0.1407000D+01 0.1407000D+01 0.3880000D+00
EXPONENTS  0.3880000D+00 0.3880000D+00 0.1020000D+00 0.1020000D+00 0.1020000D+00
EXPONENTS  0.1057000D+01 0.1057000D+01 0.1057000D+01 0.1057000D+01 0.1057000D+01
EXPONENTS  0.1057000D+01 0.2470000D+00 0.2470000D+00 0.2470000D+00 0.2470000D+00
EXPONENTS  0.2470000D+00 0.2470000D+00 0.3387000D+02 0.5095000D+01 0.1159000D+01
EXPONENTS  0.3258000D+00 0.1027000D+00 0.2526000D-01 0.1407000D+01 0.1407000D+01
EXPONENTS  0.1407000D+01 0.3880000D+00 0.3880000D+00 0.3880000D+00 0.1020000D+00
EXPONENTS  0.1020000D+00 0.1020000D+00 0.1057000D+01 0.1057000D+01 0.1057000D+01
EXPONENTS  0.1057000D+01 0.1057000D+01 0.1057000D+01 0.2470000D+00 0.2470000D+00
EXPONENTS  0.2470000D+00 0.2470000D+00 0.2470000D+00 0.2470000D+00
MO    1     MO 0.0        OCC NO =    1.0000000  ORB. ENERGY =   -0.499821
  0.60611998D-01  0.10931623D+00  0.16118672D+00  0.15560644D+00  0.48696613D-01
  0.35383180D-03  0.45631814D-16  0.13979842D-15 -0.13082653D-05 -0.18763030D-16
 -0.44769250D-16  0.13406366D-05  0.77299257D-18  0.25233615D-17 -0.76055583D-06
 -0.92322058D-07 -0.92322058D-07  0.18464412D-06  0.51748402D-17  0.15503247D-16
  0.70189246D-17  0.42997637D-07  0.42997637D-07 -0.85995274D-07 -0.25975869D-18
 -0.25833740D-17 -0.78502698D-18 -0.37413828D-05 -0.67477379D-05 -0.99495356D-05
  0.35039106D-04 -0.40384714D-04  0.11949954D-04 -0.20903498D-15 -0.66695995D-16
 -0.13792989D-04  0.29282010D-16  0.83886992D-17  0.12003972D-04  0.28924104D-18
 -0.10681549D-17 -0.21084158D-05 -0.22242859D-06 -0.22242859D-06  0.44485718D-06
  0.30324236D-16  0.14832399D-15 -0.63962373D-16  0.26360471D-06  0.26360471D-06
 -0.52720943D-06 -0.85546936D-18 -0.55486429D-17  0.18768136D-17
END DATA
 TOTAL ENERGY =       -0.499821193381 THE VIRIAL(-V/T)=   2.00103036
