 TITLE
GAUSSIAN              1 MOL ORBITALS     54 PRIMITIVES        2 NUCLEI
  H    1    (CENTRE  1)   0.00000000  0.00000000  0.00000000  CHARGE =  1.0
  H    2    (CENTRE  2)   0.00000000  0.00000000 12.28321981  CHARGE =  0.0
CENTRE ASSIGNMENTS    1  1  1  1  1  1  1  1  1  1  1  1  1  1  1  1  1  1  1  1
CENTRE ASSIGNMENTS    1  1  1  1  1  1  1  2  2  2  2  2  2  2  2  2  2  2  2  2
CENTRE ASSIGNMENTS    2  2  2  2  2  2  2  2  2  2  2  2  2  2
TYPE ASSIGNMENTS      1  1  1  1  1  1  2  3  4  2  3  4  2  3  4  5  6  7  8  9
TYPE ASSIGNMENTS     10  5  6  7  8  9 10  1  1  1  1  1  1  2  3  4  2  3  4  2
TYPE ASSIGNMENTS      3  4  5  6  7  8  9 10  5  6  7  8  9 10
EXPONENTS  0.3387000D+02 0.5095000D+01 0.1159000D+01 0.3258000D+00 0.1027000D+00
EXPONENTS  0.2526000D-01 0.1407000D+01 0.1407000D+01 0.1407000D+01 0.3880000D+00
EXPONENTS  0.3880000D+00 0.3880000D+00 0.1020000D+00 0.1020000D+00 0.1020000D+00
EXPONENTS  0.1057000D+01 0.1057000D+01 0.1057000D+01 0.1057000D+01 0.1057000D+01
EXPONENTS  0.1057000D+01 0.2470000D+00 0.2470000D+00 0.2470000D+00 0.2470000D+00
EXPONENTS  0.2470000D+00 0.2470000D+00 0.3387000D+02 0.5095000D+01 0.1159000D+01
EXPONENTS  0.3258000D+00 0.1027000D+00 0.2526000D-01 0.1407000D+01 0.1407000D+01
EXPONENTS  0.1407000D+01 0.3880000D+00 0.3880000D+00 0.3880000D+00 0.1020000D+00
EXPONENTS  0.1020000D+00 0.1020000D+00 0.1057000D+01 0.1057000D+01 0.1057000D+01
EXPONENTS  0.1057000D+01 0.1057000D+01 0.1057000D+01 0.2470000D+00 0.2470000D+00
EXPONENTS  0.2470000D+00 0.2470000D+00 0.2470000D+00 0.2470000D+00
MO    1     MO 0.0        OCC NO =    1.0000000  ORB. ENERGY =   -0.499821
  0.60612071D-01  0.10931637D+00  0.16118692D+00  0.15560584D+00  0.48697364D-01
  0.35345080D-03 -0.11360400D-15 -0.47600658D-16 -0.15114326D-05  0.50861224D-16
  0.23128819D-16  0.15504709D-05 -0.33897247D-17 -0.66929422D-17 -0.88287209D-06
 -0.10687942D-06 -0.10687942D-06  0.21375884D-06  0.34976009D-18 -0.11349053D-16
 -0.32309155D-16  0.49909681D-07  0.49909681D-07 -0.99819361D-07  0.19660199D-19
  0.16646346D-17  0.78277287D-17 -0.35413326D-05 -0.63869392D-05 -0.94175381D-05
  0.34080049D-04 -0.41196417D-04  0.12719643D-04 -0.78776206D-16 -0.61872533D-16
 -0.19078699D-04  0.18932381D-16  0.18972267D-16  0.17119490D-04  0.38395650D-18
 -0.56222529D-17 -0.41945236D-05  0.44781815D-06  0.44781815D-06 -0.89563629D-06
  0.24161610D-15 -0.15377170D-15 -0.82540494D-16 -0.11499384D-07 -0.11499384D-07
  0.22998768D-07 -0.66849224D-17  0.51591908D-17  0.81689400D-17
END DATA
 TOTAL ENERGY =       -0.499821195867 THE VIRIAL(-V/T)=   2.00103004
