 TITLE
GAUSSIAN              1 MOL ORBITALS     54 PRIMITIVES        2 NUCLEI
  H    1    (CENTRE  1)   0.00000000  0.00000000  0.00000000  CHARGE =  1.0
  H    2    (CENTRE  2)   0.00000000  0.00000000 10.01554846  CHARGE =  0.0
CENTRE ASSIGNMENTS    1  1  1  1  1  1  1  1  1  1  1  1  1  1  1  1  1  1  1  1
CENTRE ASSIGNMENTS    1  1  1  1  1  1  1  2  2  2  2  2  2  2  2  2  2  2  2  2
CENTRE ASSIGNMENTS    2  2  2  2  2  2  2  2  2  2  2  2  2  2
TYPE ASSIGNMENTS      1  1  1  1  1  1  2  3  4  2  3  4  2  3  4  5  6  7  8  9
TYPE ASSIGNMENTS     10  5  6  7  8  9 10  1  1  1  1  1  1  2  3  4  2  3  4  2
TYPE ASSIGNMENTS      3  4  5  6  7  8  9 10  5  6  7  8  9 10
EXPONENTS  0.3387000D+02 0.5095000D+01 0.1159000D+01 0.3258000D+00 0.1027000D+00
EXPONENTS  0.2526000D-01 0.1407000D+01 0.1407000D+01 0.1407000D+01 0.3880000D+00
EXPONENTS  0.3880000D+00 0.3880000D+00 0.1020000D+00 0.1020000D+00 0.1020000D+00
EXPONENTS  0.1057000D+01 0.1057000D+01 0.1057000D+01 0.1057000D+01 0.1057000D+01
EXPONENTS  0.1057000D+01 0.2470000D+00 0.2470000D+00 0.2470000D+00 0.2470000D+00
EXPONENTS  0.2470000D+00 0.2470000D+00 0.3387000D+02 0.5095000D+01 0.1159000D+01
EXPONENTS  0.3258000D+00 0.1027000D+00 0.2526000D-01 0.1407000D+01 0.1407000D+01
EXPONENTS  0.1407000D+01 0.3880000D+00 0.3880000D+00 0.3880000D+00 0.1020000D+00
EXPONENTS  0.1020000D+00 0.1020000D+00 0.1057000D+01 0.1057000D+01 0.1057000D+01
EXPONENTS  0.1057000D+01 0.1057000D+01 0.1057000D+01 0.2470000D+00 0.2470000D+00
EXPONENTS  0.2470000D+00 0.2470000D+00 0.2470000D+00 0.2470000D+00
MO    1     MO 0.0        OCC NO =    1.0000000  ORB. ENERGY =   -0.499821
  0.60613923D-01  0.10931971D+00  0.16119184D+00  0.15558960D+00  0.48716634D-01
  0.34446766D-03 -0.13878738D-16 -0.49423274D-16 -0.63151786D-05  0.24829382D-16
  0.15409674D-16  0.63223349D-05 -0.20342360D-17 -0.50565280D-17 -0.33397639D-05
 -0.11833713D-06 -0.11833713D-06  0.23667425D-06  0.15515329D-17 -0.10835217D-17
  0.12369297D-16  0.25841015D-07  0.25841015D-07 -0.51682031D-07 -0.33548633D-18
  0.21801824D-18 -0.18063844D-17  0.63695721D-05  0.11487786D-04  0.16938733D-04
 -0.49624044D-04  0.14670745D-04  0.11934395D-04 -0.32155583D-15  0.19505780D-15
 -0.75466982D-04  0.39667347D-16 -0.26142774D-16  0.82173397D-04 -0.10742996D-18
  0.54322025D-17 -0.46146895D-04  0.26680458D-04  0.26680458D-04 -0.53360916D-04
  0.29333517D-15  0.57508263D-16  0.12747831D-15 -0.12458272D-04 -0.12458272D-04
  0.24916545D-04 -0.81494802D-17  0.39838669D-19 -0.50515754D-17
END DATA
 TOTAL ENERGY =       -0.499821382137 THE VIRIAL(-V/T)=   2.00102649
