 TITLE
GAUSSIAN              1 MOL ORBITALS     54 PRIMITIVES        2 NUCLEI
  H    1    (CENTRE  1)   0.00000000  0.00000000  0.00000000  CHARGE =  1.0
  H    2    (CENTRE  2)   0.00000000  0.00000000  3.77945225  CHARGE =  0.0
CENTRE ASSIGNMENTS    1  1  1  1  1  1  1  1  1  1  1  1  1  1  1  1  1  1  1  1
CENTRE ASSIGNMENTS    1  1  1  1  1  1  1  2  2  2  2  2  2  2  2  2  2  2  2  2
CENTRE ASSIGNMENTS    2  2  2  2  2  2  2  2  2  2  2  2  2  2
TYPE ASSIGNMENTS      1  1  1  1  1  1  2  3  4  2  3  4  2  3  4  5  6  7  8  9
TYPE ASSIGNMENTS     10  5  6  7  8  9 10  1  1  1  1  1  1  2  3  4  2  3  4  2
TYPE ASSIGNMENTS      3  4  5  6  7  8  9 10  5  6  7  8  9 10
EXPONENTS  0.3387000D+02 0.5095000D+01 0.1159000D+01 0.3258000D+00 0.1027000D+00
EXPONENTS  0.2526000D-01 0.1407000D+01 0.1407000D+01 0.1407000D+01 0.3880000D+00
EXPONENTS  0.3880000D+00 0.3880000D+00 0.1020000D+00 0.1020000D+00 0.1020000D+00
EXPONENTS  0.1057000D+01 0.1057000D+01 0.1057000D+01 0.1057000D+01 0.1057000D+01
EXPONENTS  0.1057000D+01 0.2470000D+00 0.2470000D+00 0.2470000D+00 0.2470000D+00
EXPONENTS  0.2470000D+00 0.2470000D+00 0.3387000D+02 0.5095000D+01 0.1159000D+01
EXPONENTS  0.3258000D+00 0.1027000D+00 0.2526000D-01 0.1407000D+01 0.1407000D+01
EXPONENTS  0.1407000D+01 0.3880000D+00 0.3880000D+00 0.3880000D+00 0.1020000D+00
EXPONENTS  0.1020000D+00 0.1020000D+00 0.1057000D+01 0.1057000D+01 0.1057000D+01
EXPONENTS  0.1057000D+01 0.1057000D+01 0.1057000D+01 0.2470000D+00 0.2470000D+00
EXPONENTS  0.2470000D+00 0.2470000D+00 0.2470000D+00 0.2470000D+00
MO    1     MO 0.0        OCC NO =    1.0000000  ORB. ENERGY =   -0.499825
  0.60648924D-01  0.10938283D+00  0.16128492D+00  0.15529700D+00  0.49252909D-01
  0.38047174D-03 -0.43256715D-16  0.51909854D-16  0.24738620D-03 -0.48272931D-16
  0.13520418D-16 -0.23368819D-03 -0.10581475D-16  0.17961754D-16  0.28370436D-03
  0.28148533D-04  0.28148533D-04 -0.56297066D-04  0.26760031D-17  0.83962055D-16
 -0.81091649D-16 -0.13303374D-04 -0.13303374D-04  0.26606748D-04 -0.66139029D-18
  0.50983063D-16 -0.32058552D-16 -0.23689517D-05 -0.42725019D-05 -0.62998016D-05
  0.20262663D-03 -0.66386644D-03  0.97716647D-05  0.49363725D-16  0.15536615D-15
 -0.98746886D-04 -0.12653169D-16 -0.12183460D-16 -0.48807856D-03 -0.76424523D-17
  0.47185941D-17  0.31534416D-03  0.48462431D-04  0.48462431D-04 -0.96924861D-04
 -0.40252384D-17  0.22079601D-16 -0.12187737D-15 -0.40147013D-04 -0.40147013D-04
  0.80294026D-04  0.39439885D-18 -0.31236465D-16  0.36706298D-16
END DATA
 TOTAL ENERGY =       -0.499824539317 THE VIRIAL(-V/T)=   2.00098744
