 TITLE
GAUSSIAN              1 MOL ORBITALS     54 PRIMITIVES        2 NUCLEI
  H    1    (CENTRE  1)   0.00000000  0.00000000  0.00000000  CHARGE =  1.0
  H    2    (CENTRE  2)   0.00000000  0.00000000  8.12582234  CHARGE =  0.0
CENTRE ASSIGNMENTS    1  1  1  1  1  1  1  1  1  1  1  1  1  1  1  1  1  1  1  1
CENTRE ASSIGNMENTS    1  1  1  1  1  1  1  2  2  2  2  2  2  2  2  2  2  2  2  2
CENTRE ASSIGNMENTS    2  2  2  2  2  2  2  2  2  2  2  2  2  2
TYPE ASSIGNMENTS      1  1  1  1  1  1  2  3  4  2  3  4  2  3  4  5  6  7  8  9
TYPE ASSIGNMENTS     10  5  6  7  8  9 10  1  1  1  1  1  1  2  3  4  2  3  4  2
TYPE ASSIGNMENTS      3  4  5  6  7  8  9 10  5  6  7  8  9 10
EXPONENTS  0.3387000D+02 0.5095000D+01 0.1159000D+01 0.3258000D+00 0.1027000D+00
EXPONENTS  0.2526000D-01 0.1407000D+01 0.1407000D+01 0.1407000D+01 0.3880000D+00
EXPONENTS  0.3880000D+00 0.3880000D+00 0.1020000D+00 0.1020000D+00 0.1020000D+00
EXPONENTS  0.1057000D+01 0.1057000D+01 0.1057000D+01 0.1057000D+01 0.1057000D+01
EXPONENTS  0.1057000D+01 0.2470000D+00 0.2470000D+00 0.2470000D+00 0.2470000D+00
EXPONENTS  0.2470000D+00 0.2470000D+00 0.3387000D+02 0.5095000D+01 0.1159000D+01
EXPONENTS  0.3258000D+00 0.1027000D+00 0.2526000D-01 0.1407000D+01 0.1407000D+01
EXPONENTS  0.1407000D+01 0.3880000D+00 0.3880000D+00 0.3880000D+00 0.1020000D+00
EXPONENTS  0.1020000D+00 0.1020000D+00 0.1057000D+01 0.1057000D+01 0.1057000D+01
EXPONENTS  0.1057000D+01 0.1057000D+01 0.1057000D+01 0.2470000D+00 0.2470000D+00
EXPONENTS  0.2470000D+00 0.2470000D+00 0.2470000D+00 0.2470000D+00
MO    1     MO 0.0        OCC NO =    1.0000000  ORB. ENERGY =   -0.499821
  0.60613666D-01  0.10931924D+00  0.16119116D+00  0.15559113D+00  0.48716162D-01
  0.34354702D-03 -0.32260888D-16  0.78056564D-16 -0.10004045D-04 -0.39779509D-17
 -0.11553369D-16  0.10156949D-04 -0.66879319D-17 -0.36564904D-17 -0.53941689D-05
 -0.71435345D-06 -0.71435345D-06  0.14287069D-05  0.10038971D-17 -0.14574845D-16
  0.17337321D-17  0.29513739D-06  0.29513739D-06 -0.59027477D-06  0.41071245D-19
  0.41984891D-17 -0.98555439D-18 -0.63761196D-05 -0.11499594D-04 -0.16956145D-04
  0.14350778D-04  0.45484993D-04  0.64680755D-05 -0.14315656D-16 -0.36873375D-15
  0.10564397D-03 -0.99411352D-17  0.34252242D-16 -0.97433906D-04 -0.40967425D-18
 -0.14888983D-17 -0.12589715D-04 -0.28166537D-04 -0.28166537D-04  0.56333074D-04
  0.48739558D-16  0.20906872D-15 -0.29684179D-15  0.58000563D-05  0.58000563D-05
 -0.11600113D-04 -0.12372275D-17 -0.33874717D-17  0.11333077D-16
END DATA
 TOTAL ENERGY =       -0.499821378434 THE VIRIAL(-V/T)=   2.00102832
