 TITLE
GAUSSIAN              1 MOL ORBITALS     54 PRIMITIVES        2 NUCLEI
  H    1    (CENTRE  1)   0.00000000  0.00000000  0.00000000  CHARGE =  1.0
  H    2    (CENTRE  2)   0.00000000  0.00000000 11.90527458  CHARGE =  0.0
CENTRE ASSIGNMENTS    1  1  1  1  1  1  1  1  1  1  1  1  1  1  1  1  1  1  1  1
CENTRE ASSIGNMENTS    1  1  1  1  1  1  1  2  2  2  2  2  2  2  2  2  2  2  2  2
CENTRE ASSIGNMENTS    2  2  2  2  2  2  2  2  2  2  2  2  2  2
TYPE ASSIGNMENTS      1  1  1  1  1  1  2  3  4  2  3  4  2  3  4  5  6  7  8  9
TYPE ASSIGNMENTS     10  5  6  7  8  9 10  1  1  1  1  1  1  2  3  4  2  3  4  2
TYPE ASSIGNMENTS      3  4  5  6  7  8  9 10  5  6  7  8  9 10
EXPONENTS  0.3387000D+02 0.5095000D+01 0.1159000D+01 0.3258000D+00 0.1027000D+00
EXPONENTS  0.2526000D-01 0.1407000D+01 0.1407000D+01 0.1407000D+01 0.3880000D+00
EXPONENTS  0.3880000D+00 0.3880000D+00 0.1020000D+00 0.1020000D+00 0.1020000D+00
EXPONENTS  0.1057000D+01 0.1057000D+01 0.1057000D+01 0.1057000D+01 0.1057000D+01
EXPONENTS  0.1057000D+01 0.2470000D+00 0.2470000D+00 0.2470000D+00 0.2470000D+00
EXPONENTS  0.2470000D+00 0.2470000D+00 0.3387000D+02 0.5095000D+01 0.1159000D+01
EXPONENTS  0.3258000D+00 0.1027000D+00 0.2526000D-01 0.1407000D+01 0.1407000D+01
EXPONENTS  0.1407000D+01 0.3880000D+00 0.3880000D+00 0.3880000D+00 0.1020000D+00
EXPONENTS  0.1020000D+00 0.1020000D+00 0.1057000D+01 0.1057000D+01 0.1057000D+01
EXPONENTS  0.1057000D+01 0.1057000D+01 0.1057000D+01 0.2470000D+00 0.2470000D+00
EXPONENTS  0.2470000D+00 0.2470000D+00 0.2470000D+00 0.2470000D+00
MO    1     MO 0.0        OCC NO =    1.0000000  ORB. ENERGY =   -0.499821
  0.60612251D-01  0.10931669D+00  0.16118740D+00  0.15560435D+00  0.48699187D-01
  0.35253923D-03 -0.19866122D-15 -0.16270629D-15 -0.19577172D-05  0.36676807D-16
  0.53616066D-16  0.20116856D-05 -0.71688090D-17 -0.67714989D-17 -0.11524812D-05
 -0.13609096D-06 -0.13609096D-06  0.27218192D-06  0.47822156D-17  0.54926230D-17
  0.12372495D-16  0.63689843D-07  0.63689843D-07 -0.12737969D-06 -0.85736624D-18
 -0.31540768D-18 -0.46994085D-17 -0.27965048D-05 -0.50436116D-05 -0.74368024D-05
  0.29391612D-04 -0.40819445D-04  0.14003390D-04  0.18474297D-15 -0.75335521D-16
 -0.31438701D-04 -0.20962772D-16  0.22147085D-16  0.29262930D-04  0.16197117D-17
 -0.90781103D-17 -0.93967944D-05  0.24302309D-05  0.24302309D-05 -0.48604618D-05
  0.41888836D-15 -0.41964653D-15  0.20914850D-15 -0.84707988D-06 -0.84707988D-06
  0.16941598D-05 -0.11203744D-16  0.12549785D-16 -0.82605829D-17
END DATA
 TOTAL ENERGY =       -0.499821203321 THE VIRIAL(-V/T)=   2.00102928
