 TITLE
GAUSSIAN              1 MOL ORBITALS     54 PRIMITIVES        2 NUCLEI
  H    1    (CENTRE  1)   0.00000000  0.00000000  0.00000000  CHARGE =  1.0
  H    2    (CENTRE  2)   0.00000000  0.00000000  9.25965801  CHARGE =  0.0
CENTRE ASSIGNMENTS    1  1  1  1  1  1  1  1  1  1  1  1  1  1  1  1  1  1  1  1
CENTRE ASSIGNMENTS    1  1  1  1  1  1  1  2  2  2  2  2  2  2  2  2  2  2  2  2
CENTRE ASSIGNMENTS    2  2  2  2  2  2  2  2  2  2  2  2  2  2
TYPE ASSIGNMENTS      1  1  1  1  1  1  2  3  4  2  3  4  2  3  4  5  6  7  8  9
TYPE ASSIGNMENTS     10  5  6  7  8  9 10  1  1  1  1  1  1  2  3  4  2  3  4  2
TYPE ASSIGNMENTS      3  4  5  6  7  8  9 10  5  6  7  8  9 10
EXPONENTS  0.3387000D+02 0.5095000D+01 0.1159000D+01 0.3258000D+00 0.1027000D+00
EXPONENTS  0.2526000D-01 0.1407000D+01 0.1407000D+01 0.1407000D+01 0.3880000D+00
EXPONENTS  0.3880000D+00 0.3880000D+00 0.1020000D+00 0.1020000D+00 0.1020000D+00
EXPONENTS  0.1057000D+01 0.1057000D+01 0.1057000D+01 0.1057000D+01 0.1057000D+01
EXPONENTS  0.1057000D+01 0.2470000D+00 0.2470000D+00 0.2470000D+00 0.2470000D+00
EXPONENTS  0.2470000D+00 0.2470000D+00 0.3387000D+02 0.5095000D+01 0.1159000D+01
EXPONENTS  0.3258000D+00 0.1027000D+00 0.2526000D-01 0.1407000D+01 0.1407000D+01
EXPONENTS  0.1407000D+01 0.3880000D+00 0.3880000D+00 0.3880000D+00 0.1020000D+00
EXPONENTS  0.1020000D+00 0.1020000D+00 0.1057000D+01 0.1057000D+01 0.1057000D+01
EXPONENTS  0.1057000D+01 0.1057000D+01 0.1057000D+01 0.2470000D+00 0.2470000D+00
EXPONENTS  0.2470000D+00 0.2470000D+00 0.2470000D+00 0.2470000D+00
MO    1     MO 0.0        OCC NO =    1.0000000  ORB. ENERGY =   -0.499821
  0.60614304D-01  0.10932039D+00  0.16119286D+00  0.15558505D+00  0.48722849D-01
  0.34125930D-03  0.79491099D-16  0.15658586D-16 -0.11329753D-04 -0.31935374D-16
 -0.13163292D-16  0.11205827D-04  0.26178170D-17  0.60373884D-17 -0.56256700D-05
 -0.24234768D-06 -0.24234768D-06  0.48469537D-06  0.96092833D-18  0.65372986D-17
  0.10806407D-16  0.42259542D-07  0.42259541D-07 -0.84519083D-07 -0.90169460D-19
 -0.99475509D-18  0.20651686D-17  0.66600113D-05  0.12011605D-04  0.17711104D-04
 -0.68583712D-04  0.47069649D-04  0.83106662D-05 -0.65293619D-15 -0.13470372D-15
 -0.28748168D-04  0.82682151D-16  0.29776214D-16  0.45167133D-04 -0.26979385D-17
 -0.14449338D-17 -0.48822700D-04  0.28439898D-04  0.28439898D-04 -0.56879795D-04
  0.75938573D-16  0.14381645D-15 -0.51217686D-16 -0.15349779D-04 -0.15349779D-04
  0.30699559D-04 -0.18759519D-17 -0.34931491D-17  0.98594394D-18
END DATA
 TOTAL ENERGY =       -0.499821451906 THE VIRIAL(-V/T)=   2.00102909
