 TITLE
GAUSSIAN              1 MOL ORBITALS     54 PRIMITIVES        2 NUCLEI
  H    1    (CENTRE  1)   0.00000000  0.00000000  0.00000000  CHARGE =  1.0
  H    2    (CENTRE  2)   0.00000000  0.00000000 11.33835675  CHARGE =  0.0
CENTRE ASSIGNMENTS    1  1  1  1  1  1  1  1  1  1  1  1  1  1  1  1  1  1  1  1
CENTRE ASSIGNMENTS    1  1  1  1  1  1  1  2  2  2  2  2  2  2  2  2  2  2  2  2
CENTRE ASSIGNMENTS    2  2  2  2  2  2  2  2  2  2  2  2  2  2
TYPE ASSIGNMENTS      1  1  1  1  1  1  2  3  4  2  3  4  2  3  4  5  6  7  8  9
TYPE ASSIGNMENTS     10  5  6  7  8  9 10  1  1  1  1  1  1  2  3  4  2  3  4  2
TYPE ASSIGNMENTS      3  4  5  6  7  8  9 10  5  6  7  8  9 10
EXPONENTS  0.3387000D+02 0.5095000D+01 0.1159000D+01 0.3258000D+00 0.1027000D+00
EXPONENTS  0.2526000D-01 0.1407000D+01 0.1407000D+01 0.1407000D+01 0.3880000D+00
EXPONENTS  0.3880000D+00 0.3880000D+00 0.1020000D+00 0.1020000D+00 0.1020000D+00
EXPONENTS  0.1057000D+01 0.1057000D+01 0.1057000D+01 0.1057000D+01 0.1057000D+01
EXPONENTS  0.1057000D+01 0.2470000D+00 0.2470000D+00 0.2470000D+00 0.2470000D+00
EXPONENTS  0.2470000D+00 0.2470000D+00 0.3387000D+02 0.5095000D+01 0.1159000D+01
EXPONENTS  0.3258000D+00 0.1027000D+00 0.2526000D-01 0.1407000D+01 0.1407000D+01
EXPONENTS  0.1407000D+01 0.3880000D+00 0.3880000D+00 0.3880000D+00 0.1020000D+00
EXPONENTS  0.1020000D+00 0.1020000D+00 0.1057000D+01 0.1057000D+01 0.1057000D+01
EXPONENTS  0.1057000D+01 0.1057000D+01 0.1057000D+01 0.2470000D+00 0.2470000D+00
EXPONENTS  0.2470000D+00 0.2470000D+00 0.2470000D+00 0.2470000D+00
MO    1     MO 0.0        OCC NO =    1.0000000  ORB. ENERGY =   -0.499821
  0.60612628D-01  0.10931737D+00  0.16118840D+00  0.15560123D+00  0.48702932D-01
  0.35073204D-03 -0.75070734D-16  0.39911197D-16 -0.27279432D-05  0.36243689D-16
 -0.26791540D-16  0.28030927D-05 -0.25078775D-17 -0.37136116D-17 -0.16076037D-05
 -0.16817445D-06 -0.16817445D-06  0.33634890D-06  0.66728657D-18  0.88113428D-17
  0.70021619D-17  0.77714779D-07  0.77714779D-07 -0.15542956D-06  0.22860530D-18
 -0.25885292D-18  0.48317883D-18 -0.73143309D-06 -0.13191697D-05 -0.19451150D-05
  0.14278009D-04 -0.33881243D-04  0.15016366D-04 -0.99735642D-16  0.22496604D-15
 -0.52772271D-04  0.16742995D-16 -0.34281423D-16  0.50950560D-04 -0.22304526D-17
  0.23354244D-17 -0.19649105D-04  0.74260596D-05  0.74260596D-05 -0.14852119D-04
 -0.26416649D-15  0.15062505D-15 -0.44151786D-15 -0.30310999D-05 -0.30310999D-05
  0.60621997D-05  0.73098831D-17 -0.23668747D-17  0.12765578D-16
END DATA
 TOTAL ENERGY =       -0.499821226692 THE VIRIAL(-V/T)=   2.00102789
