 TITLE
GAUSSIAN              1 MOL ORBITALS     54 PRIMITIVES        2 NUCLEI
  H    1    (CENTRE  1)   0.00000000  0.00000000  0.00000000  CHARGE =  1.0
  H    2    (CENTRE  2)   0.00000000  0.00000000 10.20452107  CHARGE =  0.0
CENTRE ASSIGNMENTS    1  1  1  1  1  1  1  1  1  1  1  1  1  1  1  1  1  1  1  1
CENTRE ASSIGNMENTS    1  1  1  1  1  1  1  2  2  2  2  2  2  2  2  2  2  2  2  2
CENTRE ASSIGNMENTS    2  2  2  2  2  2  2  2  2  2  2  2  2  2
TYPE ASSIGNMENTS      1  1  1  1  1  1  2  3  4  2  3  4  2  3  4  5  6  7  8  9
TYPE ASSIGNMENTS     10  5  6  7  8  9 10  1  1  1  1  1  1  2  3  4  2  3  4  2
TYPE ASSIGNMENTS      3  4  5  6  7  8  9 10  5  6  7  8  9 10
EXPONENTS  0.3387000D+02 0.5095000D+01 0.1159000D+01 0.3258000D+00 0.1027000D+00
EXPONENTS  0.2526000D-01 0.1407000D+01 0.1407000D+01 0.1407000D+01 0.3880000D+00
EXPONENTS  0.3880000D+00 0.3880000D+00 0.1020000D+00 0.1020000D+00 0.1020000D+00
EXPONENTS  0.1057000D+01 0.1057000D+01 0.1057000D+01 0.1057000D+01 0.1057000D+01
EXPONENTS  0.1057000D+01 0.2470000D+00 0.2470000D+00 0.2470000D+00 0.2470000D+00
EXPONENTS  0.2470000D+00 0.2470000D+00 0.3387000D+02 0.5095000D+01 0.1159000D+01
EXPONENTS  0.3258000D+00 0.1027000D+00 0.2526000D-01 0.1407000D+01 0.1407000D+01
EXPONENTS  0.1407000D+01 0.3880000D+00 0.3880000D+00 0.3880000D+00 0.1020000D+00
EXPONENTS  0.1020000D+00 0.1020000D+00 0.1057000D+01 0.1057000D+01 0.1057000D+01
EXPONENTS  0.1057000D+01 0.1057000D+01 0.1057000D+01 0.2470000D+00 0.2470000D+00
EXPONENTS  0.2470000D+00 0.2470000D+00 0.2470000D+00 0.2470000D+00
MO    1     MO 0.0        OCC NO =    1.0000000  ORB. ENERGY =   -0.499821
  0.60613739D-01  0.10931937D+00  0.16119135D+00  0.15559140D+00  0.48714475D-01
  0.34545869D-03  0.84066430D-16  0.18297047D-16 -0.54646291D-05 -0.39417981D-16
 -0.15611737D-16  0.54991444D-05  0.13356055D-16  0.10708962D-16 -0.29570413D-05
 -0.12775973D-06 -0.12775973D-06  0.25551946D-06  0.27927833D-18  0.10531991D-17
  0.18166389D-17  0.38258139D-07  0.38258139D-07 -0.76516278D-07  0.10132317D-18
  0.45260910D-17  0.60162011D-18  0.55211429D-05  0.99576087D-05  0.14682488D-04
 -0.40281056D-04  0.57471478D-05  0.12784286D-04  0.26371031D-15 -0.48514276D-15
 -0.78361668D-04 -0.26696620D-16  0.58332463D-16  0.82970016D-04  0.59666145D-18
 -0.70761157D-18 -0.43203686D-04  0.24035541D-04  0.24035541D-04 -0.48071082D-04
 -0.77882926D-16 -0.52026558D-15 -0.40313525D-15 -0.10991288D-04 -0.10991288D-04
  0.21982576D-04  0.22517873D-17  0.17798220D-16  0.11153901D-16
END DATA
 TOTAL ENERGY =       -0.499821353621 THE VIRIAL(-V/T)=   2.00102625
