 TITLE
GAUSSIAN              1 MOL ORBITALS     54 PRIMITIVES        2 NUCLEI
  H    1    (CENTRE  1)   0.00000000  0.00000000  0.00000000  CHARGE =  1.0
  H    2    (CENTRE  2)   0.00000000  0.00000000  1.51178090  CHARGE =  0.0
CENTRE ASSIGNMENTS    1  1  1  1  1  1  1  1  1  1  1  1  1  1  1  1  1  1  1  1
CENTRE ASSIGNMENTS    1  1  1  1  1  1  1  2  2  2  2  2  2  2  2  2  2  2  2  2
CENTRE ASSIGNMENTS    2  2  2  2  2  2  2  2  2  2  2  2  2  2
TYPE ASSIGNMENTS      1  1  1  1  1  1  2  3  4  2  3  4  2  3  4  5  6  7  8  9
TYPE ASSIGNMENTS     10  5  6  7  8  9 10  1  1  1  1  1  1  2  3  4  2  3  4  2
TYPE ASSIGNMENTS      3  4  5  6  7  8  9 10  5  6  7  8  9 10
EXPONENTS  0.3387000D+02 0.5095000D+01 0.1159000D+01 0.3258000D+00 0.1027000D+00
EXPONENTS  0.2526000D-01 0.1407000D+01 0.1407000D+01 0.1407000D+01 0.3880000D+00
EXPONENTS  0.3880000D+00 0.3880000D+00 0.1020000D+00 0.1020000D+00 0.1020000D+00
EXPONENTS  0.1057000D+01 0.1057000D+01 0.1057000D+01 0.1057000D+01 0.1057000D+01
EXPONENTS  0.1057000D+01 0.2470000D+00 0.2470000D+00 0.2470000D+00 0.2470000D+00
EXPONENTS  0.2470000D+00 0.2470000D+00 0.3387000D+02 0.5095000D+01 0.1159000D+01
EXPONENTS  0.3258000D+00 0.1027000D+00 0.2526000D-01 0.1407000D+01 0.1407000D+01
EXPONENTS  0.1407000D+01 0.3880000D+00 0.3880000D+00 0.3880000D+00 0.1020000D+00
EXPONENTS  0.1020000D+00 0.1020000D+00 0.1057000D+01 0.1057000D+01 0.1057000D+01
EXPONENTS  0.1057000D+01 0.1057000D+01 0.1057000D+01 0.2470000D+00 0.2470000D+00
EXPONENTS  0.2470000D+00 0.2470000D+00 0.2470000D+00 0.2470000D+00
MO    1     MO 0.0        OCC NO =    1.0000000  ORB. ENERGY =   -0.499827
  0.60716118D-01  0.10950402D+00  0.16146361D+00  0.16401094D+00  0.63042151D-01
  0.54137766D-03  0.79687790D-16 -0.18534747D-15  0.66036430D-03 -0.27348868D-15
 -0.91026089D-16  0.48213956D-02 -0.22699860D-16 -0.60722646D-16  0.24056191D-02
 -0.25507577D-03 -0.25507577D-03  0.51015154D-03  0.30943929D-16 -0.14146804D-15
 -0.10501931D-15 -0.18494409D-03 -0.18494409D-03  0.36988819D-03  0.68050414D-18
 -0.85352955D-16 -0.69387833D-16  0.61989453D-04  0.11180053D-03  0.16484982D-03
 -0.72018095D-02 -0.14870698D-01 -0.12517962D-03 -0.61723734D-15  0.27808310D-15
 -0.12681688D-02  0.35320501D-15  0.90187517D-16  0.65040786D-02  0.58783181D-17
  0.48896628D-16  0.23275639D-02  0.72096859D-03  0.72096859D-03 -0.14419372D-02
 -0.12079880D-15 -0.53008327D-15 -0.71562088D-16  0.35316409D-03  0.35316409D-03
 -0.70632819D-03 -0.29774794D-17 -0.39352298D-16 -0.60346545D-16
END DATA
 TOTAL ENERGY =       -0.499826813236 THE VIRIAL(-V/T)=   2.00097016
