 TITLE
GAUSSIAN              1 MOL ORBITALS     54 PRIMITIVES        2 NUCLEI
  H    1    (CENTRE  1)   0.00000000  0.00000000  0.00000000  CHARGE =  1.0
  H    2    (CENTRE  2)   0.00000000  0.00000000 11.52732936  CHARGE =  0.0
CENTRE ASSIGNMENTS    1  1  1  1  1  1  1  1  1  1  1  1  1  1  1  1  1  1  1  1
CENTRE ASSIGNMENTS    1  1  1  1  1  1  1  2  2  2  2  2  2  2  2  2  2  2  2  2
CENTRE ASSIGNMENTS    2  2  2  2  2  2  2  2  2  2  2  2  2  2
TYPE ASSIGNMENTS      1  1  1  1  1  1  2  3  4  2  3  4  2  3  4  5  6  7  8  9
TYPE ASSIGNMENTS     10  5  6  7  8  9 10  1  1  1  1  1  1  2  3  4  2  3  4  2
TYPE ASSIGNMENTS      3  4  5  6  7  8  9 10  5  6  7  8  9 10
EXPONENTS  0.3387000D+02 0.5095000D+01 0.1159000D+01 0.3258000D+00 0.1027000D+00
EXPONENTS  0.2526000D-01 0.1407000D+01 0.1407000D+01 0.1407000D+01 0.3880000D+00
EXPONENTS  0.3880000D+00 0.3880000D+00 0.1020000D+00 0.1020000D+00 0.1020000D+00
EXPONENTS  0.1057000D+01 0.1057000D+01 0.1057000D+01 0.1057000D+01 0.1057000D+01
EXPONENTS  0.1057000D+01 0.2470000D+00 0.2470000D+00 0.2470000D+00 0.2470000D+00
EXPONENTS  0.2470000D+00 0.2470000D+00 0.3387000D+02 0.5095000D+01 0.1159000D+01
EXPONENTS  0.3258000D+00 0.1027000D+00 0.2526000D-01 0.1407000D+01 0.1407000D+01
EXPONENTS  0.1407000D+01 0.3880000D+00 0.3880000D+00 0.3880000D+00 0.1020000D+00
EXPONENTS  0.1020000D+00 0.1020000D+00 0.1057000D+01 0.1057000D+01 0.1057000D+01
EXPONENTS  0.1057000D+01 0.1057000D+01 0.1057000D+01 0.2470000D+00 0.2470000D+00
EXPONENTS  0.2470000D+00 0.2470000D+00 0.2470000D+00 0.2470000D+00
MO    1     MO 0.0        OCC NO =    1.0000000  ORB. ENERGY =   -0.499821
  0.60612487D-01  0.10931712D+00  0.16118802D+00  0.15560241D+00  0.48701531D-01
  0.35139830D-03 -0.46709710D-16 -0.47579761D-16 -0.24550379D-05  0.14143034D-16
 -0.25904235D-16  0.25240135D-05 -0.31204076D-17  0.30298328D-18 -0.14493645D-05
 -0.16029883D-06 -0.16029883D-06  0.32059765D-06 -0.80260148D-18 -0.10801070D-17
  0.25183922D-16  0.74639273D-07  0.74639273D-07 -0.14927855D-06  0.98842105D-19
  0.12757430D-17 -0.48269116D-17 -0.15463981D-05 -0.27889926D-05 -0.41123680D-05
  0.20450410D-04 -0.37146057D-04  0.14822388D-04  0.14555992D-15  0.53113959D-17
 -0.45520239D-04 -0.94434681D-17  0.23572924D-16  0.43449937D-04 -0.20654591D-17
 -0.63748431D-17 -0.15939317D-04  0.54624225D-05  0.54624225D-05 -0.10924845D-04
  0.25702167D-15 -0.40310287D-15 -0.68913426D-17 -0.21619939D-05 -0.21619939D-05
  0.43239879D-05 -0.74963739D-17  0.11041921D-16 -0.44971280D-17
END DATA
 TOTAL ENERGY =       -0.499821216641 THE VIRIAL(-V/T)=   2.00102837
