 TITLE
GAUSSIAN              1 MOL ORBITALS     54 PRIMITIVES        2 NUCLEI
  H    1    (CENTRE  1)   0.00000000  0.00000000  0.00000000  CHARGE =  1.0
  H    2    (CENTRE  2)   0.00000000  0.00000000  0.75589045  CHARGE =  0.0
CENTRE ASSIGNMENTS    1  1  1  1  1  1  1  1  1  1  1  1  1  1  1  1  1  1  1  1
CENTRE ASSIGNMENTS    1  1  1  1  1  1  1  2  2  2  2  2  2  2  2  2  2  2  2  2
CENTRE ASSIGNMENTS    2  2  2  2  2  2  2  2  2  2  2  2  2  2
TYPE ASSIGNMENTS      1  1  1  1  1  1  2  3  4  2  3  4  2  3  4  5  6  7  8  9
TYPE ASSIGNMENTS     10  5  6  7  8  9 10  1  1  1  1  1  1  2  3  4  2  3  4  2
TYPE ASSIGNMENTS      3  4  5  6  7  8  9 10  5  6  7  8  9 10
EXPONENTS  0.3387000D+02 0.5095000D+01 0.1159000D+01 0.3258000D+00 0.1027000D+00
EXPONENTS  0.2526000D-01 0.1407000D+01 0.1407000D+01 0.1407000D+01 0.3880000D+00
EXPONENTS  0.3880000D+00 0.3880000D+00 0.1020000D+00 0.1020000D+00 0.1020000D+00
EXPONENTS  0.1057000D+01 0.1057000D+01 0.1057000D+01 0.1057000D+01 0.1057000D+01
EXPONENTS  0.1057000D+01 0.2470000D+00 0.2470000D+00 0.2470000D+00 0.2470000D+00
EXPONENTS  0.2470000D+00 0.2470000D+00 0.3387000D+02 0.5095000D+01 0.1159000D+01
EXPONENTS  0.3258000D+00 0.1027000D+00 0.2526000D-01 0.1407000D+01 0.1407000D+01
EXPONENTS  0.1407000D+01 0.3880000D+00 0.3880000D+00 0.3880000D+00 0.1020000D+00
EXPONENTS  0.1020000D+00 0.1020000D+00 0.1057000D+01 0.1057000D+01 0.1057000D+01
EXPONENTS  0.1057000D+01 0.1057000D+01 0.1057000D+01 0.2470000D+00 0.2470000D+00
EXPONENTS  0.2470000D+00 0.2470000D+00 0.2470000D+00 0.2470000D+00
MO    1     MO 0.0        OCC NO =    1.0000000  ORB. ENERGY =   -0.499824
  0.60827737D-01  0.10970533D+00  0.16176044D+00  0.14142168D+00  0.11214263D+00
  0.44392881D-03 -0.14109797D-15 -0.14720704D-14  0.75958664D-03  0.21709961D-14
 -0.24021459D-14 -0.46517068D-02  0.76711129D-15 -0.55125534D-15  0.53474421D-02
  0.42943687D-03  0.42943687D-03 -0.85887374D-03 -0.28453762D-15  0.50830336D-15
 -0.21421151D-14 -0.52031002D-05 -0.52031002D-05  0.10406200D-04 -0.41602115D-16
  0.40518744D-15 -0.33935019D-15  0.74900865D-04  0.13508679D-03  0.19918540D-03
  0.14013618D-01 -0.63726303D-01 -0.34507148D-04  0.36291631D-15  0.14004732D-14
  0.16500618D-02 -0.22061437D-14  0.23976737D-14 -0.33290475D-02 -0.74378787D-15
  0.55101706D-15  0.43457387D-02  0.30972678D-03  0.30972678D-03 -0.61945356D-03
  0.20759720D-15  0.93124902D-15 -0.22964853D-14 -0.15481461D-04 -0.15481461D-04
  0.30962921D-04  0.36597699D-16  0.44137433D-15 -0.42046465D-15
END DATA
 TOTAL ENERGY =       -0.499824086547 THE VIRIAL(-V/T)=   2.00097173
