 TITLE
GAUSSIAN              1 MOL ORBITALS     54 PRIMITIVES        2 NUCLEI
  H    1    (CENTRE  1)   0.00000000  0.00000000  0.00000000  CHARGE =  1.0
  H    2    (CENTRE  2)   0.00000000  0.00000000  7.36993189  CHARGE =  0.0
CENTRE ASSIGNMENTS    1  1  1  1  1  1  1  1  1  1  1  1  1  1  1  1  1  1  1  1
CENTRE ASSIGNMENTS    1  1  1  1  1  1  1  2  2  2  2  2  2  2  2  2  2  2  2  2
CENTRE ASSIGNMENTS    2  2  2  2  2  2  2  2  2  2  2  2  2  2
TYPE ASSIGNMENTS      1  1  1  1  1  1  2  3  4  2  3  4  2  3  4  5  6  7  8  9
TYPE ASSIGNMENTS     10  5  6  7  8  9 10  1  1  1  1  1  1  2  3  4  2  3  4  2
TYPE ASSIGNMENTS      3  4  5  6  7  8  9 10  5  6  7  8  9 10
EXPONENTS  0.3387000D+02 0.5095000D+01 0.1159000D+01 0.3258000D+00 0.1027000D+00
EXPONENTS  0.2526000D-01 0.1407000D+01 0.1407000D+01 0.1407000D+01 0.3880000D+00
EXPONENTS  0.3880000D+00 0.3880000D+00 0.1020000D+00 0.1020000D+00 0.1020000D+00
EXPONENTS  0.1057000D+01 0.1057000D+01 0.1057000D+01 0.1057000D+01 0.1057000D+01
EXPONENTS  0.1057000D+01 0.2470000D+00 0.2470000D+00 0.2470000D+00 0.2470000D+00
EXPONENTS  0.2470000D+00 0.2470000D+00 0.3387000D+02 0.5095000D+01 0.1159000D+01
EXPONENTS  0.3258000D+00 0.1027000D+00 0.2526000D-01 0.1407000D+01 0.1407000D+01
EXPONENTS  0.1407000D+01 0.3880000D+00 0.3880000D+00 0.3880000D+00 0.1020000D+00
EXPONENTS  0.1020000D+00 0.1020000D+00 0.1057000D+01 0.1057000D+01 0.1057000D+01
EXPONENTS  0.1057000D+01 0.1057000D+01 0.1057000D+01 0.2470000D+00 0.2470000D+00
EXPONENTS  0.2470000D+00 0.2470000D+00 0.2470000D+00 0.2470000D+00
MO    1     MO 0.0        OCC NO =    1.0000000  ORB. ENERGY =   -0.499822
  0.60615497D-01  0.10932254D+00  0.16119603D+00  0.15558113D+00  0.48715453D-01
  0.35022961D-03 -0.42169108D-16 -0.54798718D-16  0.24912722D-04 -0.28830392D-16
  0.58969470D-17 -0.24677229D-04 -0.12048356D-16 -0.26417357D-17  0.11721130D-04
  0.33923003D-05  0.33923003D-05 -0.67846005D-05 -0.12242238D-18  0.10894687D-16
  0.99394712D-17 -0.14606415D-05 -0.14606415D-05  0.29212831D-05 -0.19203047D-18
 -0.44115784D-17 -0.14816772D-17 -0.14987089D-04 -0.27029831D-04 -0.39855471D-04
  0.12040930D-03  0.18370757D-05  0.73343734D-05  0.17936009D-15 -0.21907602D-15
  0.96215105D-04 -0.35102018D-16  0.29324148D-16 -0.13601359D-03 -0.50564417D-17
 -0.35974630D-17  0.31940879D-04 -0.92127068D-04 -0.92127068D-04  0.18425414D-03
  0.42004124D-16  0.11951534D-15  0.31101765D-15  0.39965931D-04  0.39965931D-04
 -0.79931861D-04 -0.58123580D-18 -0.52119757D-17 -0.65539290D-17
END DATA
 TOTAL ENERGY =       -0.499821736831 THE VIRIAL(-V/T)=   2.00101949
