 TITLE
GAUSSIAN              1 MOL ORBITALS     54 PRIMITIVES        2 NUCLEI
  H    1    (CENTRE  1)   0.00000000  0.00000000  0.00000000  CHARGE =  1.0
  H    2    (CENTRE  2)   0.00000000  0.00000000  5.29123315  CHARGE =  0.0
CENTRE ASSIGNMENTS    1  1  1  1  1  1  1  1  1  1  1  1  1  1  1  1  1  1  1  1
CENTRE ASSIGNMENTS    1  1  1  1  1  1  1  2  2  2  2  2  2  2  2  2  2  2  2  2
CENTRE ASSIGNMENTS    2  2  2  2  2  2  2  2  2  2  2  2  2  2
TYPE ASSIGNMENTS      1  1  1  1  1  1  2  3  4  2  3  4  2  3  4  5  6  7  8  9
TYPE ASSIGNMENTS     10  5  6  7  8  9 10  1  1  1  1  1  1  2  3  4  2  3  4  2
TYPE ASSIGNMENTS      3  4  5  6  7  8  9 10  5  6  7  8  9 10
EXPONENTS  0.3387000D+02 0.5095000D+01 0.1159000D+01 0.3258000D+00 0.1027000D+00
EXPONENTS  0.2526000D-01 0.1407000D+01 0.1407000D+01 0.1407000D+01 0.3880000D+00
EXPONENTS  0.3880000D+00 0.3880000D+00 0.1020000D+00 0.1020000D+00 0.1020000D+00
EXPONENTS  0.1057000D+01 0.1057000D+01 0.1057000D+01 0.1057000D+01 0.1057000D+01
EXPONENTS  0.1057000D+01 0.2470000D+00 0.2470000D+00 0.2470000D+00 0.2470000D+00
EXPONENTS  0.2470000D+00 0.2470000D+00 0.3387000D+02 0.5095000D+01 0.1159000D+01
EXPONENTS  0.3258000D+00 0.1027000D+00 0.2526000D-01 0.1407000D+01 0.1407000D+01
EXPONENTS  0.1407000D+01 0.3880000D+00 0.3880000D+00 0.3880000D+00 0.1020000D+00
EXPONENTS  0.1020000D+00 0.1020000D+00 0.1057000D+01 0.1057000D+01 0.1057000D+01
EXPONENTS  0.1057000D+01 0.1057000D+01 0.1057000D+01 0.2470000D+00 0.2470000D+00
EXPONENTS  0.2470000D+00 0.2470000D+00 0.2470000D+00 0.2470000D+00
MO    1     MO 0.0        OCC NO =    1.0000000  ORB. ENERGY =   -0.499823
  0.60628846D-01  0.10934662D+00  0.16123153D+00  0.15545703D+00  0.48833589D-01
  0.36498550D-03 -0.17571338D-16 -0.43905178D-16  0.11662107D-03 -0.87425795D-17
  0.35770503D-16 -0.13087924D-03  0.65712261D-17 -0.78282896D-17  0.10817608D-03
  0.41088106D-04  0.41088106D-04 -0.82176212D-04  0.10148710D-16 -0.49916697D-17
  0.48163579D-16 -0.22676287D-04 -0.22676287D-04  0.45352575D-04  0.38175996D-18
 -0.19792049D-17  0.66921405D-17  0.19856094D-05  0.35811283D-05  0.52803716D-05
 -0.53103599D-04 -0.10152741D-03  0.18422711D-05  0.70390338D-15 -0.12667277D-15
  0.74474797D-04 -0.79864654D-16  0.29914684D-16  0.12016072D-03  0.14263920D-17
 -0.10644435D-16  0.13924301D-03  0.35325790D-04  0.35325790D-04 -0.70651579D-04
 -0.13698316D-15  0.47211981D-16  0.82781006D-16  0.98735679D-07  0.98735679D-07
 -0.19747136D-06  0.47088113D-17  0.95332554D-17 -0.42878017D-17
END DATA
 TOTAL ENERGY =       -0.499822546761 THE VIRIAL(-V/T)=   2.00100459
