 TITLE
GAUSSIAN              1 MOL ORBITALS     54 PRIMITIVES        2 NUCLEI
  H    1    (CENTRE  1)   0.00000000  0.00000000  0.00000000  CHARGE =  1.0
  H    2    (CENTRE  2)   0.00000000  0.00000000  9.44863062  CHARGE =  0.0
CENTRE ASSIGNMENTS    1  1  1  1  1  1  1  1  1  1  1  1  1  1  1  1  1  1  1  1
CENTRE ASSIGNMENTS    1  1  1  1  1  1  1  2  2  2  2  2  2  2  2  2  2  2  2  2
CENTRE ASSIGNMENTS    2  2  2  2  2  2  2  2  2  2  2  2  2  2
TYPE ASSIGNMENTS      1  1  1  1  1  1  2  3  4  2  3  4  2  3  4  5  6  7  8  9
TYPE ASSIGNMENTS     10  5  6  7  8  9 10  1  1  1  1  1  1  2  3  4  2  3  4  2
TYPE ASSIGNMENTS      3  4  5  6  7  8  9 10  5  6  7  8  9 10
EXPONENTS  0.3387000D+02 0.5095000D+01 0.1159000D+01 0.3258000D+00 0.1027000D+00
EXPONENTS  0.2526000D-01 0.1407000D+01 0.1407000D+01 0.1407000D+01 0.3880000D+00
EXPONENTS  0.3880000D+00 0.3880000D+00 0.1020000D+00 0.1020000D+00 0.1020000D+00
EXPONENTS  0.1057000D+01 0.1057000D+01 0.1057000D+01 0.1057000D+01 0.1057000D+01
EXPONENTS  0.1057000D+01 0.2470000D+00 0.2470000D+00 0.2470000D+00 0.2470000D+00
EXPONENTS  0.2470000D+00 0.2470000D+00 0.3387000D+02 0.5095000D+01 0.1159000D+01
EXPONENTS  0.3258000D+00 0.1027000D+00 0.2526000D-01 0.1407000D+01 0.1407000D+01
EXPONENTS  0.1407000D+01 0.3880000D+00 0.3880000D+00 0.3880000D+00 0.1020000D+00
EXPONENTS  0.1020000D+00 0.1020000D+00 0.1057000D+01 0.1057000D+01 0.1057000D+01
EXPONENTS  0.1057000D+01 0.1057000D+01 0.1057000D+01 0.2470000D+00 0.2470000D+00
EXPONENTS  0.2470000D+00 0.2470000D+00 0.2470000D+00 0.2470000D+00
MO    1     MO 0.0        OCC NO =    1.0000000  ORB. ENERGY =   -0.499821
  0.60614284D-01  0.10932036D+00  0.16119280D+00  0.15558557D+00  0.48721902D-01
  0.34185657D-03  0.27854502D-16 -0.13461025D-16 -0.98963219D-05 -0.16633023D-17
  0.13984237D-16  0.98007437D-05  0.62908794D-18 -0.22127660D-18 -0.49590410D-05
 -0.17440273D-06 -0.17440273D-06  0.34880545D-06 -0.12595305D-17 -0.92553453D-17
 -0.22971892D-18  0.21009184D-07  0.21009184D-07 -0.42018367D-07 -0.77551916D-20
  0.35469179D-18  0.13486309D-17  0.72017704D-05  0.12988690D-04  0.19151815D-04
 -0.67911847D-04  0.40241235D-04  0.91593427D-05  0.26860638D-15 -0.27231918D-16
 -0.45976908D-04 -0.18981162D-16  0.74502703D-17  0.60057138D-04 -0.88081868D-18
 -0.10743681D-17 -0.49869761D-04  0.29997467D-04  0.29997467D-04 -0.59994934D-04
  0.74248458D-16  0.31544935D-15  0.19175290D-15 -0.15365123D-04 -0.15365123D-04
  0.30730247D-04 -0.15428246D-17 -0.94142434D-17 -0.62202660D-17
END DATA
 TOTAL ENERGY =       -0.499821446127 THE VIRIAL(-V/T)=   2.00102829
