 TITLE
GAUSSIAN              1 MOL ORBITALS     27 PRIMITIVES        1 NUCLEI
  H    1    (CENTRE  1)   0.00000000  0.00000000  0.00000000  CHARGE =  1.0
CENTRE ASSIGNMENTS    1  1  1  1  1  1  1  1  1  1  1  1  1  1  1  1  1  1  1  1
CENTRE ASSIGNMENTS    1  1  1  1  1  1  1
TYPE ASSIGNMENTS      1  1  1  1  1  1  2  3  4  2  3  4  2  3  4  5  6  7  8  9
TYPE ASSIGNMENTS     10  5  6  7  8  9 10
EXPONENTS  0.3387000D+02 0.5095000D+01 0.1159000D+01 0.3258000D+00 0.1027000D+00
EXPONENTS  0.2526000D-01 0.1407000D+01 0.1407000D+01 0.1407000D+01 0.3880000D+00
EXPONENTS  0.3880000D+00 0.3880000D+00 0.1020000D+00 0.1020000D+00 0.1020000D+00
EXPONENTS  0.1057000D+01 0.1057000D+01 0.1057000D+01 0.1057000D+01 0.1057000D+01
EXPONENTS  0.1057000D+01 0.2470000D+00 0.2470000D+00 0.2470000D+00 0.2470000D+00
EXPONENTS  0.2470000D+00 0.2470000D+00
MO    1     MO 0.0        OCC NO =    1.0000000  ORB. ENERGY =   -0.499821
  0.60611573D-01  0.10931547D+00  0.16118559D+00  0.15561000D+00  0.48692166D-01
  0.35606754D-03 -0.93171136D-17  0.19128887D-15  0.11419493D-15  0.46656974D-16
 -0.43490563D-16 -0.46142780D-16 -0.92748454D-17  0.29153482D-17  0.49300600D-17
  0.53845366D-16  0.16397294D-15 -0.21781830D-15  0.69604871D-15  0.84323489D-16
  0.20590066D-15  0.22248418D-16 -0.26177503D-16  0.39290859D-17 -0.23760874D-16
  0.15652762D-17 -0.40090664D-17
END DATA
 TOTAL ENERGY =       -0.499821176024 THE VIRIAL(-V/T)=   2.00103202
