 TITLE
GAUSSIAN              1 MOL ORBITALS     34 PRIMITIVES        2 NUCLEI
  H    1    (CENTRE  1)   0.00000000  0.00000000  0.00000000  CHARGE =  1.0
  H    2    (CENTRE  2)   0.00000000  0.00000000  2.83458919  CHARGE =  0.0
CENTRE ASSIGNMENTS    1  1  1  1  1  1  1  1  1  1  1  1  1  1  1  1  1  2  2  2
CENTRE ASSIGNMENTS    2  2  2  2  2  2  2  2  2  2  2  2  2  2
TYPE ASSIGNMENTS      1  1  1  1  1  2  3  4  2  3  4  5  6  7  8  9 10  1  1  1
TYPE ASSIGNMENTS      1  1  2  3  4  2  3  4  5  6  7  8  9 10
EXPONENTS  0.3387000D+02 0.5095000D+01 0.1159000D+01 0.3258000D+00 0.1027000D+00
EXPONENTS  0.1407000D+01 0.1407000D+01 0.1407000D+01 0.3880000D+00 0.3880000D+00
EXPONENTS  0.3880000D+00 0.1057000D+01 0.1057000D+01 0.1057000D+01 0.1057000D+01
EXPONENTS  0.1057000D+01 0.1057000D+01 0.3387000D+02 0.5095000D+01 0.1159000D+01
EXPONENTS  0.3258000D+00 0.1027000D+00 0.1407000D+01 0.1407000D+01 0.1407000D+01
EXPONENTS  0.3880000D+00 0.3880000D+00 0.3880000D+00 0.1057000D+01 0.1057000D+01
EXPONENTS  0.1057000D+01 0.1057000D+01 0.1057000D+01 0.1057000D+01
MO    1     MO 0.0        OCC NO =    1.0000000  ORB. ENERGY =   -0.499811
  0.60716405D-01  0.10950454D+00  0.16146438D+00  0.15487261D+00  0.49474850D-01
 -0.24339725D-16 -0.83262638D-16  0.29431472D-04  0.12346220D-16 -0.15188543D-16
 -0.11147618D-03  0.30342391D-04  0.30342391D-04 -0.60684783D-04  0.32418334D-17
  0.64946731D-16 -0.22629585D-16  0.45870846D-04  0.82729959D-04  0.12198528D-03
 -0.11919813D-03  0.14024106D-03 -0.16538099D-15 -0.24081071D-15  0.10920450D-02
  0.29638102D-16  0.32967773D-16 -0.36442503D-03  0.23212476D-03  0.23212476D-03
 -0.46424951D-03 -0.82560183D-17  0.26815668D-16 -0.35728031D-16
END DATA
 TOTAL ENERGY =       -0.499810924851 THE VIRIAL(-V/T)=   2.00006073
