 TITLE
GAUSSIAN              1 MOL ORBITALS     34 PRIMITIVES        2 NUCLEI
  H    1    (CENTRE  1)   0.00000000  0.00000000  0.00000000  CHARGE =  1.0
  H    2    (CENTRE  2)   0.00000000  0.00000000  0.18897261  CHARGE =  0.0
CENTRE ASSIGNMENTS    1  1  1  1  1  1  1  1  1  1  1  1  1  1  1  1  1  2  2  2
CENTRE ASSIGNMENTS    2  2  2  2  2  2  2  2  2  2  2  2  2  2
TYPE ASSIGNMENTS      1  1  1  1  1  2  3  4  2  3  4  5  6  7  8  9 10  1  1  1
TYPE ASSIGNMENTS      1  1  2  3  4  2  3  4  5  6  7  8  9 10
EXPONENTS  0.3387000D+02 0.5095000D+01 0.1159000D+01 0.3258000D+00 0.1027000D+00
EXPONENTS  0.1407000D+01 0.1407000D+01 0.1407000D+01 0.3880000D+00 0.3880000D+00
EXPONENTS  0.3880000D+00 0.1057000D+01 0.1057000D+01 0.1057000D+01 0.1057000D+01
EXPONENTS  0.1057000D+01 0.1057000D+01 0.3387000D+02 0.5095000D+01 0.1159000D+01
EXPONENTS  0.3258000D+00 0.1027000D+00 0.1407000D+01 0.1407000D+01 0.1407000D+01
EXPONENTS  0.3880000D+00 0.3880000D+00 0.3880000D+00 0.1057000D+01 0.1057000D+01
EXPONENTS  0.1057000D+01 0.1057000D+01 0.1057000D+01 0.1057000D+01
MO    1     MO 0.0        OCC NO =    1.0000000  ORB. ENERGY =   -0.499810
  0.60350186D-01  0.10884405D+00  0.16049048D+00  0.15281327D+00  0.49830770D-01
  0.54807068D-15  0.14951113D-14  0.41848045D-02  0.26174272D-15  0.51990146D-15
  0.12073240D-02 -0.31198844D-03 -0.31198844D-03  0.62397688D-03  0.12250817D-15
  0.14302533D-14 -0.14893771D-14  0.90003085D-04  0.16232427D-03  0.23934704D-03
  0.21446344D-02 -0.24971173D-03 -0.70792636D-15 -0.13055029D-14 -0.46158859D-02
 -0.24387774D-15 -0.59835523D-15 -0.14918931D-02 -0.35502854D-03 -0.35502854D-03
  0.71005708D-03 -0.12139325D-15 -0.10425579D-14  0.20310548D-14
END DATA
 TOTAL ENERGY =       -0.499810192406 THE VIRIAL(-V/T)=   2.00007052
