 TITLE
GAUSSIAN              1 MOL ORBITALS     34 PRIMITIVES        2 NUCLEI
  H    1    (CENTRE  1)   0.00000000  0.00000000  0.00000000  CHARGE =  1.0
  H    2    (CENTRE  2)   0.00000000  0.00000000 13.03911026  CHARGE =  0.0
CENTRE ASSIGNMENTS    1  1  1  1  1  1  1  1  1  1  1  1  1  1  1  1  1  2  2  2
CENTRE ASSIGNMENTS    2  2  2  2  2  2  2  2  2  2  2  2  2  2
TYPE ASSIGNMENTS      1  1  1  1  1  2  3  4  2  3  4  5  6  7  8  9 10  1  1  1
TYPE ASSIGNMENTS      1  1  2  3  4  2  3  4  5  6  7  8  9 10
EXPONENTS  0.3387000D+02 0.5095000D+01 0.1159000D+01 0.3258000D+00 0.1027000D+00
EXPONENTS  0.1407000D+01 0.1407000D+01 0.1407000D+01 0.3880000D+00 0.3880000D+00
EXPONENTS  0.3880000D+00 0.1057000D+01 0.1057000D+01 0.1057000D+01 0.1057000D+01
EXPONENTS  0.1057000D+01 0.1057000D+01 0.3387000D+02 0.5095000D+01 0.1159000D+01
EXPONENTS  0.3258000D+00 0.1027000D+00 0.1407000D+01 0.1407000D+01 0.1407000D+01
EXPONENTS  0.3880000D+00 0.3880000D+00 0.3880000D+00 0.1057000D+01 0.1057000D+01
EXPONENTS  0.1057000D+01 0.1057000D+01 0.1057000D+01 0.1057000D+01
MO    1     MO 0.0        OCC NO =    1.0000000  ORB. ENERGY =   -0.499810
  0.60717760D-01  0.10950698D+00  0.16146798D+00  0.15487132D+00  0.49575074D-01
  0.67384039D-16  0.98222733D-16 -0.28435870D-09 -0.19524706D-16 -0.41347143D-16
  0.29393384D-09 -0.10739700D-10 -0.10739694D-10  0.21479394D-10 -0.72127198D-19
  0.79852020D-16  0.20273167D-16  0.27155631D-05  0.48976300D-05  0.72215525D-05
 -0.19883034D-04  0.12645124D-04  0.29701299D-15 -0.27281463D-15  0.98910265D-06
 -0.46965845D-16  0.37316248D-16 -0.67460392D-06 -0.29727430D-07 -0.29727430D-07
  0.59454861D-07 -0.15928158D-17  0.30936702D-17  0.96970816D-18
END DATA
 TOTAL ENERGY =       -0.499809813770 THE VIRIAL(-V/T)=   2.00004545
