 TITLE
GAUSSIAN              1 MOL ORBITALS     34 PRIMITIVES        2 NUCLEI
  H    1    (CENTRE  1)   0.00000000  0.00000000  0.00000000  CHARGE =  1.0
  H    2    (CENTRE  2)   0.00000000  0.00000000 12.66116503  CHARGE =  0.0
CENTRE ASSIGNMENTS    1  1  1  1  1  1  1  1  1  1  1  1  1  1  1  1  1  2  2  2
CENTRE ASSIGNMENTS    2  2  2  2  2  2  2  2  2  2  2  2  2  2
TYPE ASSIGNMENTS      1  1  1  1  1  2  3  4  2  3  4  5  6  7  8  9 10  1  1  1
TYPE ASSIGNMENTS      1  1  2  3  4  2  3  4  5  6  7  8  9 10
EXPONENTS  0.3387000D+02 0.5095000D+01 0.1159000D+01 0.3258000D+00 0.1027000D+00
EXPONENTS  0.1407000D+01 0.1407000D+01 0.1407000D+01 0.3880000D+00 0.3880000D+00
EXPONENTS  0.3880000D+00 0.1057000D+01 0.1057000D+01 0.1057000D+01 0.1057000D+01
EXPONENTS  0.1057000D+01 0.1057000D+01 0.3387000D+02 0.5095000D+01 0.1159000D+01
EXPONENTS  0.3258000D+00 0.1027000D+00 0.1407000D+01 0.1407000D+01 0.1407000D+01
EXPONENTS  0.3880000D+00 0.3880000D+00 0.3880000D+00 0.1057000D+01 0.1057000D+01
EXPONENTS  0.1057000D+01 0.1057000D+01 0.1057000D+01 0.1057000D+01
MO    1     MO 0.0        OCC NO =    1.0000000  ORB. ENERGY =   -0.499810
  0.60717760D-01  0.10950698D+00  0.16146798D+00  0.15487131D+00  0.49575077D-01
  0.14101447D-16  0.16763645D-15 -0.82068397D-09 -0.87223082D-17 -0.62369919D-16
  0.78713912D-09 -0.33121259D-10 -0.33121252D-10  0.66242511D-10  0.51473043D-19
 -0.66338203D-18 -0.21123665D-17  0.39514966D-05  0.71266868D-05  0.10508295D-04
 -0.29088281D-04  0.18628417D-04 -0.63534037D-15  0.64803084D-15  0.18663095D-05
  0.64649971D-16 -0.43283375D-16 -0.12809172D-05 -0.62842171D-07 -0.62842171D-07
  0.12568434D-06 -0.62040927D-19 -0.98051819D-16  0.44522889D-16
END DATA
 TOTAL ENERGY =       -0.499809816644 THE VIRIAL(-V/T)=   2.00004553
