 TITLE
GAUSSIAN              1 MOL ORBITALS     34 PRIMITIVES        2 NUCLEI
  H    1    (CENTRE  1)   0.00000000  0.00000000  0.00000000  CHARGE =  1.0
  H    2    (CENTRE  2)   0.00000000  0.00000000  3.21253441  CHARGE =  0.0
CENTRE ASSIGNMENTS    1  1  1  1  1  1  1  1  1  1  1  1  1  1  1  1  1  2  2  2
CENTRE ASSIGNMENTS    2  2  2  2  2  2  2  2  2  2  2  2  2  2
TYPE ASSIGNMENTS      1  1  1  1  1  2  3  4  2  3  4  5  6  7  8  9 10  1  1  1
TYPE ASSIGNMENTS      1  1  2  3  4  2  3  4  5  6  7  8  9 10
EXPONENTS  0.3387000D+02 0.5095000D+01 0.1159000D+01 0.3258000D+00 0.1027000D+00
EXPONENTS  0.1407000D+01 0.1407000D+01 0.1407000D+01 0.3880000D+00 0.3880000D+00
EXPONENTS  0.3880000D+00 0.1057000D+01 0.1057000D+01 0.1057000D+01 0.1057000D+01
EXPONENTS  0.1057000D+01 0.1057000D+01 0.3387000D+02 0.5095000D+01 0.1159000D+01
EXPONENTS  0.3258000D+00 0.1027000D+00 0.1407000D+01 0.1407000D+01 0.1407000D+01
EXPONENTS  0.3880000D+00 0.3880000D+00 0.3880000D+00 0.1057000D+01 0.1057000D+01
EXPONENTS  0.1057000D+01 0.1057000D+01 0.1057000D+01 0.1057000D+01
MO    1     MO 0.0        OCC NO =    1.0000000  ORB. ENERGY =   -0.499811
  0.60711511D-01  0.10949571D+00  0.16145136D+00  0.15492288D+00  0.49455596D-01
  0.18436667D-15  0.16253003D-15  0.52306344D-04 -0.15754992D-15 -0.10009846D-15
 -0.80581621D-04  0.19075946D-04  0.19075946D-04 -0.38151891D-04 -0.19781607D-18
  0.24044682D-15  0.19962221D-15  0.10275104D-03  0.18531573D-03  0.27324794D-03
 -0.33758220D-03  0.21757955D-03  0.11392557D-15 -0.20509725D-15  0.34096148D-03
 -0.94381213D-17  0.10165509D-16 -0.29795598D-03  0.35034590D-03  0.35034590D-03
 -0.70069180D-03  0.36075310D-17  0.56961479D-16 -0.26851562D-16
END DATA
 TOTAL ENERGY =       -0.499811213316 THE VIRIAL(-V/T)=   2.00008366
