 TITLE
GAUSSIAN              1 MOL ORBITALS     34 PRIMITIVES        2 NUCLEI
  H    1    (CENTRE  1)   0.00000000  0.00000000  0.00000000  CHARGE =  1.0
  H    2    (CENTRE  2)   0.00000000  0.00000000  4.15739747  CHARGE =  0.0
CENTRE ASSIGNMENTS    1  1  1  1  1  1  1  1  1  1  1  1  1  1  1  1  1  2  2  2
CENTRE ASSIGNMENTS    2  2  2  2  2  2  2  2  2  2  2  2  2  2
TYPE ASSIGNMENTS      1  1  1  1  1  2  3  4  2  3  4  5  6  7  8  9 10  1  1  1
TYPE ASSIGNMENTS      1  1  2  3  4  2  3  4  5  6  7  8  9 10
EXPONENTS  0.3387000D+02 0.5095000D+01 0.1159000D+01 0.3258000D+00 0.1027000D+00
EXPONENTS  0.1407000D+01 0.1407000D+01 0.1407000D+01 0.3880000D+00 0.3880000D+00
EXPONENTS  0.3880000D+00 0.1057000D+01 0.1057000D+01 0.1057000D+01 0.1057000D+01
EXPONENTS  0.1057000D+01 0.1057000D+01 0.3387000D+02 0.5095000D+01 0.1159000D+01
EXPONENTS  0.3258000D+00 0.1027000D+00 0.1407000D+01 0.1407000D+01 0.1407000D+01
EXPONENTS  0.3880000D+00 0.3880000D+00 0.3880000D+00 0.1057000D+01 0.1057000D+01
EXPONENTS  0.1057000D+01 0.1057000D+01 0.1057000D+01 0.1057000D+01
MO    1     MO 0.0        OCC NO =    1.0000000  ORB. ENERGY =   -0.499811
  0.60707695D-01  0.10948883D+00  0.16144121D+00  0.15495605D+00  0.49455945D-01
 -0.23800175D-15  0.11648403D-14  0.92744544D-04  0.30965970D-16 -0.82981444D-16
 -0.77274191D-04  0.62669433D-05  0.62669433D-05 -0.12533887D-04  0.28690823D-17
 -0.20804710D-16 -0.34029929D-15  0.32815398D-04  0.59183921D-04  0.87266657D-04
 -0.51436510D-03  0.33013177D-03 -0.43198974D-15  0.67136843D-15 -0.26335774D-03
  0.27360202D-16 -0.12869110D-15 -0.70732696D-04 -0.26131730D-03 -0.26131730D-03
  0.52263459D-03 -0.94418935D-16  0.50258674D-15  0.35412506D-15
END DATA
 TOTAL ENERGY =       -0.499811441555 THE VIRIAL(-V/T)=   2.00013941
