 TITLE
GAUSSIAN              1 MOL ORBITALS     34 PRIMITIVES        2 NUCLEI
  H    1    (CENTRE  1)   0.00000000  0.00000000  0.00000000  CHARGE =  1.0
  H    2    (CENTRE  2)   0.00000000  0.00000000 10.20452107  CHARGE =  0.0
CENTRE ASSIGNMENTS    1  1  1  1  1  1  1  1  1  1  1  1  1  1  1  1  1  2  2  2
CENTRE ASSIGNMENTS    2  2  2  2  2  2  2  2  2  2  2  2  2  2
TYPE ASSIGNMENTS      1  1  1  1  1  2  3  4  2  3  4  5  6  7  8  9 10  1  1  1
TYPE ASSIGNMENTS      1  1  2  3  4  2  3  4  5  6  7  8  9 10
EXPONENTS  0.3387000D+02 0.5095000D+01 0.1159000D+01 0.3258000D+00 0.1027000D+00
EXPONENTS  0.1407000D+01 0.1407000D+01 0.1407000D+01 0.3880000D+00 0.3880000D+00
EXPONENTS  0.3880000D+00 0.1057000D+01 0.1057000D+01 0.1057000D+01 0.1057000D+01
EXPONENTS  0.1057000D+01 0.1057000D+01 0.3387000D+02 0.5095000D+01 0.1159000D+01
EXPONENTS  0.3258000D+00 0.1027000D+00 0.1407000D+01 0.1407000D+01 0.1407000D+01
EXPONENTS  0.3880000D+00 0.3880000D+00 0.3880000D+00 0.1057000D+01 0.1057000D+01
EXPONENTS  0.1057000D+01 0.1057000D+01 0.1057000D+01 0.1057000D+01
MO    1     MO 0.0        OCC NO =    1.0000000  ORB. ENERGY =   -0.499810
  0.60717606D-01  0.10950670D+00  0.16146757D+00  0.15487080D+00  0.49575072D-01
  0.47620721D-16  0.60004071D-16 -0.20937600D-06 -0.40664717D-16 -0.13307478D-16
  0.21861938D-06 -0.16753974D-07 -0.16753974D-07  0.33507947D-07  0.77416032D-19
  0.19558973D-16 -0.10359140D-17  0.21690610D-04  0.39119909D-04  0.57682283D-04
 -0.17532425D-03  0.12809425D-03 -0.14635426D-15  0.18060031D-15  0.56209052D-04
  0.25031187D-16 -0.29343495D-16 -0.41476279D-04 -0.34748154D-05 -0.34748154D-05
  0.69496309D-05  0.46529926D-18 -0.44287885D-18 -0.73244163D-17
END DATA
 TOTAL ENERGY =       -0.499810069911 THE VIRIAL(-V/T)=   2.00005410
