 TITLE
GAUSSIAN              1 MOL ORBITALS     34 PRIMITIVES        2 NUCLEI
  H    1    (CENTRE  1)   0.00000000  0.00000000  0.00000000  CHARGE =  1.0
  H    2    (CENTRE  2)   0.00000000  0.00000000 12.47219242  CHARGE =  0.0
CENTRE ASSIGNMENTS    1  1  1  1  1  1  1  1  1  1  1  1  1  1  1  1  1  2  2  2
CENTRE ASSIGNMENTS    2  2  2  2  2  2  2  2  2  2  2  2  2  2
TYPE ASSIGNMENTS      1  1  1  1  1  2  3  4  2  3  4  5  6  7  8  9 10  1  1  1
TYPE ASSIGNMENTS      1  1  2  3  4  2  3  4  5  6  7  8  9 10
EXPONENTS  0.3387000D+02 0.5095000D+01 0.1159000D+01 0.3258000D+00 0.1027000D+00
EXPONENTS  0.1407000D+01 0.1407000D+01 0.1407000D+01 0.3880000D+00 0.3880000D+00
EXPONENTS  0.3880000D+00 0.1057000D+01 0.1057000D+01 0.1057000D+01 0.1057000D+01
EXPONENTS  0.1057000D+01 0.1057000D+01 0.3387000D+02 0.5095000D+01 0.1159000D+01
EXPONENTS  0.3258000D+00 0.1027000D+00 0.1407000D+01 0.1407000D+01 0.1407000D+01
EXPONENTS  0.3880000D+00 0.3880000D+00 0.3880000D+00 0.1057000D+01 0.1057000D+01
EXPONENTS  0.1057000D+01 0.1057000D+01 0.1057000D+01 0.1057000D+01
MO    1     MO 0.0        OCC NO =    1.0000000  ORB. ENERGY =   -0.499810
  0.60717759D-01  0.10950698D+00  0.16146798D+00  0.15487130D+00  0.49575080D-01
  0.65549331D-16  0.78944609D-16 -0.13668448D-08 -0.22305549D-16 -0.23398190D-16
  0.12614094D-08 -0.59253570D-10 -0.59253563D-10  0.11850713D-09  0.24390357D-18
  0.12273896D-16 -0.15811032D-15  0.47215947D-05  0.85155905D-05  0.12556233D-04
 -0.34868400D-04  0.22423475D-04  0.30391766D-16 -0.26668159D-15  0.25398398D-05
  0.64952814D-17  0.42501686D-16 -0.17493054D-05 -0.90309667D-07 -0.90309667D-07
  0.18061933D-06  0.77747160D-19 -0.13861903D-17 -0.16367203D-16
END DATA
 TOTAL ENERGY =       -0.499809819033 THE VIRIAL(-V/T)=   2.00004559
