 TITLE
GAUSSIAN              1 MOL ORBITALS     34 PRIMITIVES        2 NUCLEI
  H    1    (CENTRE  1)   0.00000000  0.00000000  0.00000000  CHARGE =  1.0
  H    2    (CENTRE  2)   0.00000000  0.00000000  2.45664396  CHARGE =  0.0
CENTRE ASSIGNMENTS    1  1  1  1  1  1  1  1  1  1  1  1  1  1  1  1  1  2  2  2
CENTRE ASSIGNMENTS    2  2  2  2  2  2  2  2  2  2  2  2  2  2
TYPE ASSIGNMENTS      1  1  1  1  1  2  3  4  2  3  4  5  6  7  8  9 10  1  1  1
TYPE ASSIGNMENTS      1  1  2  3  4  2  3  4  5  6  7  8  9 10
EXPONENTS  0.3387000D+02 0.5095000D+01 0.1159000D+01 0.3258000D+00 0.1027000D+00
EXPONENTS  0.1407000D+01 0.1407000D+01 0.1407000D+01 0.3880000D+00 0.3880000D+00
EXPONENTS  0.3880000D+00 0.1057000D+01 0.1057000D+01 0.1057000D+01 0.1057000D+01
EXPONENTS  0.1057000D+01 0.1057000D+01 0.3387000D+02 0.5095000D+01 0.1159000D+01
EXPONENTS  0.3258000D+00 0.1027000D+00 0.1407000D+01 0.1407000D+01 0.1407000D+01
EXPONENTS  0.3880000D+00 0.3880000D+00 0.3880000D+00 0.1057000D+01 0.1057000D+01
EXPONENTS  0.1057000D+01 0.1057000D+01 0.1057000D+01 0.1057000D+01
MO    1     MO 0.0        OCC NO =    1.0000000  ORB. ENERGY =   -0.499810
  0.60736769D-01  0.10954126D+00  0.16151853D+00  0.15471155D+00  0.49523242D-01
  0.81628299D-16  0.17669741D-15  0.55733630D-04 -0.55410168D-16 -0.72059287D-16
 -0.26693531D-03  0.12698776D-03  0.12698776D-03 -0.25397551D-03 -0.94053324D-17
  0.34421963D-16 -0.22654706D-15 -0.65029604D-04 -0.11728357D-03 -0.17293455D-03
  0.23537692D-03  0.41976322D-04 -0.11483623D-15 -0.18435401D-15  0.86770869D-03
  0.25009672D-16  0.45515524D-16 -0.36703260D-03 -0.24329103D-03 -0.24329103D-03
  0.48658207D-03  0.20614522D-16  0.31384262D-16 -0.24258172D-15
END DATA
 TOTAL ENERGY =       -0.499810426281 THE VIRIAL(-V/T)=   2.00003612
