 TITLE
GAUSSIAN              1 MOL ORBITALS     34 PRIMITIVES        2 NUCLEI
  H    1    (CENTRE  1)   0.00000000  0.00000000  0.00000000  CHARGE =  1.0
  H    2    (CENTRE  2)   0.00000000  0.00000000  0.56691784  CHARGE =  0.0
CENTRE ASSIGNMENTS    1  1  1  1  1  1  1  1  1  1  1  1  1  1  1  1  1  2  2  2
CENTRE ASSIGNMENTS    2  2  2  2  2  2  2  2  2  2  2  2  2  2
TYPE ASSIGNMENTS      1  1  1  1  1  2  3  4  2  3  4  5  6  7  8  9 10  1  1  1
TYPE ASSIGNMENTS      1  1  2  3  4  2  3  4  5  6  7  8  9 10
EXPONENTS  0.3387000D+02 0.5095000D+01 0.1159000D+01 0.3258000D+00 0.1027000D+00
EXPONENTS  0.1407000D+01 0.1407000D+01 0.1407000D+01 0.3880000D+00 0.3880000D+00
EXPONENTS  0.3880000D+00 0.1057000D+01 0.1057000D+01 0.1057000D+01 0.1057000D+01
EXPONENTS  0.1057000D+01 0.1057000D+01 0.3387000D+02 0.5095000D+01 0.1159000D+01
EXPONENTS  0.3258000D+00 0.1027000D+00 0.1407000D+01 0.1407000D+01 0.1407000D+01
EXPONENTS  0.3880000D+00 0.3880000D+00 0.3880000D+00 0.1057000D+01 0.1057000D+01
EXPONENTS  0.1057000D+01 0.1057000D+01 0.1057000D+01 0.1057000D+01
MO    1     MO 0.0        OCC NO =    1.0000000  ORB. ENERGY =   -0.499810
  0.60685562D-01  0.10944891D+00  0.16138235D+00  0.15035504D+00  0.49977538D-01
 -0.34944218D-15  0.41171761D-15  0.26150834D-04 -0.16778809D-15  0.46070277D-16
 -0.93938695D-03  0.64520096D-04  0.64520096D-04 -0.12904019D-03 -0.26491567D-15
 -0.34434132D-15  0.75851907D-15  0.60960074D-04  0.10994400D-03  0.16211237D-03
  0.44495655D-02 -0.38707282D-03  0.44046840D-15 -0.63797787D-15  0.32796369D-03
  0.13533982D-15 -0.34730059D-16 -0.10746209D-02 -0.24442000D-04 -0.24442000D-04
  0.48884001D-04  0.26810046D-15 -0.31704265D-15 -0.18308687D-15
END DATA
 TOTAL ENERGY =       -0.499809987783 THE VIRIAL(-V/T)=   2.00006463
