 TITLE
GAUSSIAN              1 MOL ORBITALS     34 PRIMITIVES        2 NUCLEI
  H    1    (CENTRE  1)   0.00000000  0.00000000  0.00000000  CHARGE =  1.0
  H    2    (CENTRE  2)   0.00000000  0.00000000  3.59047964  CHARGE =  0.0
CENTRE ASSIGNMENTS    1  1  1  1  1  1  1  1  1  1  1  1  1  1  1  1  1  2  2  2
CENTRE ASSIGNMENTS    2  2  2  2  2  2  2  2  2  2  2  2  2  2
TYPE ASSIGNMENTS      1  1  1  1  1  2  3  4  2  3  4  5  6  7  8  9 10  1  1  1
TYPE ASSIGNMENTS      1  1  2  3  4  2  3  4  5  6  7  8  9 10
EXPONENTS  0.3387000D+02 0.5095000D+01 0.1159000D+01 0.3258000D+00 0.1027000D+00
EXPONENTS  0.1407000D+01 0.1407000D+01 0.1407000D+01 0.3880000D+00 0.3880000D+00
EXPONENTS  0.3880000D+00 0.1057000D+01 0.1057000D+01 0.1057000D+01 0.1057000D+01
EXPONENTS  0.1057000D+01 0.1057000D+01 0.3387000D+02 0.5095000D+01 0.1159000D+01
EXPONENTS  0.3258000D+00 0.1027000D+00 0.1407000D+01 0.1407000D+01 0.1407000D+01
EXPONENTS  0.3880000D+00 0.3880000D+00 0.3880000D+00 0.1057000D+01 0.1057000D+01
EXPONENTS  0.1057000D+01 0.1057000D+01 0.1057000D+01 0.1057000D+01
MO    1     MO 0.0        OCC NO =    1.0000000  ORB. ENERGY =   -0.499811
  0.60710661D-01  0.10949418D+00  0.16144910D+00  0.15493974D+00  0.49449614D-01
 -0.97236616D-16  0.15185514D-15  0.10054092D-03  0.13884744D-15  0.98394809D-16
 -0.90954551D-04  0.10482583D-04  0.10482583D-04 -0.20965167D-04 -0.37116421D-19
 -0.13114755D-17  0.20573623D-16  0.88478356D-04  0.15957436D-03  0.23529230D-03
 -0.44727321D-03  0.27477005D-03  0.28937243D-15  0.35682256D-15 -0.31113886D-03
 -0.20873295D-16 -0.85786337D-16 -0.20996020D-03  0.97806263D-04  0.97806263D-04
 -0.19561253D-03 -0.23002412D-16  0.19915819D-16 -0.28973586D-16
END DATA
 TOTAL ENERGY =       -0.499811008183 THE VIRIAL(-V/T)=   2.00010897
