 TITLE
GAUSSIAN              1 MOL ORBITALS     34 PRIMITIVES        2 NUCLEI
  H    1    (CENTRE  1)   0.00000000  0.00000000  0.00000000  CHARGE =  1.0
  H    2    (CENTRE  2)   0.00000000  0.00000000  0.94486306  CHARGE =  0.0
CENTRE ASSIGNMENTS    1  1  1  1  1  1  1  1  1  1  1  1  1  1  1  1  1  2  2  2
CENTRE ASSIGNMENTS    2  2  2  2  2  2  2  2  2  2  2  2  2  2
TYPE ASSIGNMENTS      1  1  1  1  1  2  3  4  2  3  4  5  6  7  8  9 10  1  1  1
TYPE ASSIGNMENTS      1  1  2  3  4  2  3  4  5  6  7  8  9 10
EXPONENTS  0.3387000D+02 0.5095000D+01 0.1159000D+01 0.3258000D+00 0.1027000D+00
EXPONENTS  0.1407000D+01 0.1407000D+01 0.1407000D+01 0.3880000D+00 0.3880000D+00
EXPONENTS  0.3880000D+00 0.1057000D+01 0.1057000D+01 0.1057000D+01 0.1057000D+01
EXPONENTS  0.1057000D+01 0.1057000D+01 0.3387000D+02 0.5095000D+01 0.1159000D+01
EXPONENTS  0.3258000D+00 0.1027000D+00 0.1407000D+01 0.1407000D+01 0.1407000D+01
EXPONENTS  0.3880000D+00 0.3880000D+00 0.3880000D+00 0.1057000D+01 0.1057000D+01
EXPONENTS  0.1057000D+01 0.1057000D+01 0.1057000D+01 0.1057000D+01
MO    1     MO 0.0        OCC NO =    1.0000000  ORB. ENERGY =   -0.499810
  0.60920616D-01  0.10987284D+00  0.16200744D+00  0.15106785D+00  0.49736986D-01
  0.19143652D-15 -0.52809120D-15  0.12244389D-02  0.44120223D-16 -0.76017226D-16
 -0.17232794D-02  0.93563594D-04  0.93563594D-04 -0.18712719D-03  0.72169593D-16
  0.16244363D-15 -0.32905340D-15 -0.66679888D-04 -0.12025992D-03 -0.17732319D-03
  0.37505693D-02 -0.16218676D-03 -0.14808559D-15  0.39905545D-15  0.17105319D-02
 -0.51744019D-16  0.72839917D-16 -0.14883198D-02  0.33640281D-03  0.33640281D-03
 -0.67280563D-03 -0.45108200D-16  0.28679797D-15 -0.66871583D-15
END DATA
 TOTAL ENERGY =       -0.499810471491 THE VIRIAL(-V/T)=   1.99999628
