 TITLE
GAUSSIAN              1 MOL ORBITALS     34 PRIMITIVES        2 NUCLEI
  H    1    (CENTRE  1)   0.00000000  0.00000000  0.00000000  CHARGE =  1.0
  H    2    (CENTRE  2)   0.00000000  0.00000000  1.32280829  CHARGE =  0.0
CENTRE ASSIGNMENTS    1  1  1  1  1  1  1  1  1  1  1  1  1  1  1  1  1  2  2  2
CENTRE ASSIGNMENTS    2  2  2  2  2  2  2  2  2  2  2  2  2  2
TYPE ASSIGNMENTS      1  1  1  1  1  2  3  4  2  3  4  5  6  7  8  9 10  1  1  1
TYPE ASSIGNMENTS      1  1  2  3  4  2  3  4  5  6  7  8  9 10
EXPONENTS  0.3387000D+02 0.5095000D+01 0.1159000D+01 0.3258000D+00 0.1027000D+00
EXPONENTS  0.1407000D+01 0.1407000D+01 0.1407000D+01 0.3880000D+00 0.3880000D+00
EXPONENTS  0.3880000D+00 0.1057000D+01 0.1057000D+01 0.1057000D+01 0.1057000D+01
EXPONENTS  0.1057000D+01 0.1057000D+01 0.3387000D+02 0.5095000D+01 0.1159000D+01
EXPONENTS  0.3258000D+00 0.1027000D+00 0.1407000D+01 0.1407000D+01 0.1407000D+01
EXPONENTS  0.3880000D+00 0.3880000D+00 0.3880000D+00 0.1057000D+01 0.1057000D+01
EXPONENTS  0.1057000D+01 0.1057000D+01 0.1057000D+01 0.1057000D+01
MO    1     MO 0.0        OCC NO =    1.0000000  ORB. ENERGY =   -0.499810
  0.60811821D-01  0.10967662D+00  0.16171812D+00  0.15596624D+00  0.49527090D-01
 -0.15712253D-15 -0.18364395D-15  0.49007457D-03  0.68536101D-16 -0.63333846D-16
  0.48689555D-03  0.27518193D-04  0.27518193D-04 -0.55036386D-04  0.23420041D-16
 -0.36140845D-15 -0.37043614D-15  0.30772362D-04  0.55499222D-04  0.81833571D-04
 -0.10740422D-02  0.29421045D-04  0.30065246D-15  0.36288027D-15  0.73709689D-04
  0.76711593D-16 -0.57295147D-16  0.82444530D-03  0.42287228D-03  0.42287228D-03
 -0.84574456D-03 -0.24911759D-16 -0.36464239D-15 -0.10918618D-15
END DATA
 TOTAL ENERGY =       -0.499810164168 THE VIRIAL(-V/T)=   2.00000994
