 TITLE
GAUSSIAN              1 MOL ORBITALS     34 PRIMITIVES        2 NUCLEI
  H    1    (CENTRE  1)   0.00000000  0.00000000  0.00000000  CHARGE =  1.0
  H    2    (CENTRE  2)   0.00000000  0.00000000  2.07869874  CHARGE =  0.0
CENTRE ASSIGNMENTS    1  1  1  1  1  1  1  1  1  1  1  1  1  1  1  1  1  2  2  2
CENTRE ASSIGNMENTS    2  2  2  2  2  2  2  2  2  2  2  2  2  2
TYPE ASSIGNMENTS      1  1  1  1  1  2  3  4  2  3  4  5  6  7  8  9 10  1  1  1
TYPE ASSIGNMENTS      1  1  2  3  4  2  3  4  5  6  7  8  9 10
EXPONENTS  0.3387000D+02 0.5095000D+01 0.1159000D+01 0.3258000D+00 0.1027000D+00
EXPONENTS  0.1407000D+01 0.1407000D+01 0.1407000D+01 0.3880000D+00 0.3880000D+00
EXPONENTS  0.3880000D+00 0.1057000D+01 0.1057000D+01 0.1057000D+01 0.1057000D+01
EXPONENTS  0.1057000D+01 0.1057000D+01 0.3387000D+02 0.5095000D+01 0.1159000D+01
EXPONENTS  0.3258000D+00 0.1027000D+00 0.1407000D+01 0.1407000D+01 0.1407000D+01
EXPONENTS  0.3880000D+00 0.3880000D+00 0.3880000D+00 0.1057000D+01 0.1057000D+01
EXPONENTS  0.1057000D+01 0.1057000D+01 0.1057000D+01 0.1057000D+01
MO    1     MO 0.0        OCC NO =    1.0000000  ORB. ENERGY =   -0.499811
  0.60746960D-01  0.10955964D+00  0.16154563D+00  0.15446507D+00  0.49592894D-01
 -0.44830692D-16 -0.68591688D-16 -0.20517981D-03  0.29488921D-16 -0.33021274D-16
 -0.44472254D-03  0.33414886D-03  0.33414886D-03 -0.66829773D-03  0.70440945D-17
  0.20609886D-15 -0.56601752D-15 -0.10249256D-03 -0.18484955D-03 -0.27256056D-03
  0.59168159D-03 -0.55853982D-04  0.33132479D-15 -0.56316737D-16 -0.50337319D-03
 -0.40602737D-16  0.53409617D-16 -0.29322024D-03 -0.57434852D-03 -0.57434852D-03
  0.11486970D-02 -0.12791602D-16  0.30220826D-15 -0.64333164D-15
END DATA
 TOTAL ENERGY =       -0.499810921808 THE VIRIAL(-V/T)=   2.00002334
