 TITLE
GAUSSIAN              1 MOL ORBITALS     34 PRIMITIVES        2 NUCLEI
  H    1    (CENTRE  1)   0.00000000  0.00000000  0.00000000  CHARGE =  1.0
  H    2    (CENTRE  2)   0.00000000  0.00000000  6.04712360  CHARGE =  0.0
CENTRE ASSIGNMENTS    1  1  1  1  1  1  1  1  1  1  1  1  1  1  1  1  1  2  2  2
CENTRE ASSIGNMENTS    2  2  2  2  2  2  2  2  2  2  2  2  2  2
TYPE ASSIGNMENTS      1  1  1  1  1  2  3  4  2  3  4  5  6  7  8  9 10  1  1  1
TYPE ASSIGNMENTS      1  1  2  3  4  2  3  4  5  6  7  8  9 10
EXPONENTS  0.3387000D+02 0.5095000D+01 0.1159000D+01 0.3258000D+00 0.1027000D+00
EXPONENTS  0.1407000D+01 0.1407000D+01 0.1407000D+01 0.3880000D+00 0.3880000D+00
EXPONENTS  0.3880000D+00 0.1057000D+01 0.1057000D+01 0.1057000D+01 0.1057000D+01
EXPONENTS  0.1057000D+01 0.1057000D+01 0.3387000D+02 0.5095000D+01 0.1159000D+01
EXPONENTS  0.3258000D+00 0.1027000D+00 0.1407000D+01 0.1407000D+01 0.1407000D+01
EXPONENTS  0.3880000D+00 0.3880000D+00 0.3880000D+00 0.1057000D+01 0.1057000D+01
EXPONENTS  0.1057000D+01 0.1057000D+01 0.1057000D+01 0.1057000D+01
MO    1     MO 0.0        OCC NO =    1.0000000  ORB. ENERGY =   -0.499812
  0.60709267D-01  0.10949166D+00  0.16144539D+00  0.15492417D+00  0.49529802D-01
  0.61117926D-16  0.19003107D-15  0.18591118D-04  0.34979982D-16 -0.33248427D-16
 -0.76206685D-05  0.83684509D-07  0.83684509D-07 -0.16736902D-06 -0.75495434D-21
 -0.24680522D-17  0.35652955D-17  0.42118422D-04  0.75962309D-04  0.11200638D-03
 -0.24080909D-03  0.29036932D-03  0.57131642D-15 -0.37331049D-15 -0.27320575D-03
 -0.55151486D-16  0.35301914D-16  0.26540798D-03  0.10365748D-03  0.10365748D-03
 -0.20731497D-03  0.20802940D-16  0.20327440D-16  0.14140868D-16
END DATA
 TOTAL ENERGY =       -0.499811689347 THE VIRIAL(-V/T)=   2.00014703
