 TITLE
GAUSSIAN              1 MOL ORBITALS     34 PRIMITIVES        2 NUCLEI
  H    1    (CENTRE  1)   0.00000000  0.00000000  0.00000000  CHARGE =  1.0
  H    2    (CENTRE  2)   0.00000000  0.00000000 10.77143891  CHARGE =  0.0
CENTRE ASSIGNMENTS    1  1  1  1  1  1  1  1  1  1  1  1  1  1  1  1  1  2  2  2
CENTRE ASSIGNMENTS    2  2  2  2  2  2  2  2  2  2  2  2  2  2
TYPE ASSIGNMENTS      1  1  1  1  1  2  3  4  2  3  4  5  6  7  8  9 10  1  1  1
TYPE ASSIGNMENTS      1  1  2  3  4  2  3  4  5  6  7  8  9 10
EXPONENTS  0.3387000D+02 0.5095000D+01 0.1159000D+01 0.3258000D+00 0.1027000D+00
EXPONENTS  0.1407000D+01 0.1407000D+01 0.1407000D+01 0.3880000D+00 0.3880000D+00
EXPONENTS  0.3880000D+00 0.1057000D+01 0.1057000D+01 0.1057000D+01 0.1057000D+01
EXPONENTS  0.1057000D+01 0.1057000D+01 0.3387000D+02 0.5095000D+01 0.1159000D+01
EXPONENTS  0.3258000D+00 0.1027000D+00 0.1407000D+01 0.1407000D+01 0.1407000D+01
EXPONENTS  0.3880000D+00 0.3880000D+00 0.3880000D+00 0.1057000D+01 0.1057000D+01
EXPONENTS  0.1057000D+01 0.1057000D+01 0.1057000D+01 0.1057000D+01
MO    1     MO 0.0        OCC NO =    1.0000000  ORB. ENERGY =   -0.499810
  0.60717705D-01  0.10950688D+00  0.16146783D+00  0.15487098D+00  0.49575137D-01
 -0.91100864D-17  0.86934214D-16 -0.73000977D-07  0.27534741D-16 -0.34100927D-16
  0.73626821D-07 -0.50474943D-08 -0.50474943D-08  0.10094989D-07  0.12519016D-18
  0.13615012D-16  0.16759792D-16  0.16784394D-04  0.30271346D-04  0.44635083D-04
 -0.13087454D-03  0.90720437D-04 -0.65912767D-15  0.37608098D-15  0.29186446D-04
  0.82355719D-16 -0.44593870D-16 -0.21040469D-04 -0.15956741D-05 -0.15956741D-05
  0.31913483D-05 -0.77448765D-18  0.10598109D-16 -0.80958138D-17
END DATA
 TOTAL ENERGY =       -0.499809938480 THE VIRIAL(-V/T)=   2.00004935
