 TITLE
GAUSSIAN              1 MOL ORBITALS     34 PRIMITIVES        2 NUCLEI
  H    1    (CENTRE  1)   0.00000000  0.00000000  0.00000000  CHARGE =  1.0
  H    2    (CENTRE  2)   0.00000000  0.00000000  6.23609621  CHARGE =  0.0
CENTRE ASSIGNMENTS    1  1  1  1  1  1  1  1  1  1  1  1  1  1  1  1  1  2  2  2
CENTRE ASSIGNMENTS    2  2  2  2  2  2  2  2  2  2  2  2  2  2
TYPE ASSIGNMENTS      1  1  1  1  1  2  3  4  2  3  4  5  6  7  8  9 10  1  1  1
TYPE ASSIGNMENTS      1  1  2  3  4  2  3  4  5  6  7  8  9 10
EXPONENTS  0.3387000D+02 0.5095000D+01 0.1159000D+01 0.3258000D+00 0.1027000D+00
EXPONENTS  0.1407000D+01 0.1407000D+01 0.1407000D+01 0.3880000D+00 0.3880000D+00
EXPONENTS  0.3880000D+00 0.1057000D+01 0.1057000D+01 0.1057000D+01 0.1057000D+01
EXPONENTS  0.1057000D+01 0.1057000D+01 0.3387000D+02 0.5095000D+01 0.1159000D+01
EXPONENTS  0.3258000D+00 0.1027000D+00 0.1407000D+01 0.1407000D+01 0.1407000D+01
EXPONENTS  0.3880000D+00 0.3880000D+00 0.3880000D+00 0.1057000D+01 0.1057000D+01
EXPONENTS  0.1057000D+01 0.1057000D+01 0.1057000D+01 0.1057000D+01
MO    1     MO 0.0        OCC NO =    1.0000000  ORB. ENERGY =   -0.499812
  0.60709497D-01  0.10949208D+00  0.16144600D+00  0.15492056D+00  0.49534548D-01
 -0.33076904D-15 -0.93129883D-15  0.11667874D-04  0.54478415D-16  0.11416613D-15
 -0.25876592D-05 -0.34725715D-06 -0.34725715D-06  0.69451431D-06 -0.13369674D-20
 -0.19884853D-16  0.31449774D-16  0.36298275D-04  0.65465434D-04  0.96528744D-04
 -0.19418850D-03  0.27857983D-03 -0.31014926D-15  0.24831115D-15 -0.24763816D-03
  0.29696340D-16 -0.24660346D-16  0.20563692D-03  0.91324067D-04  0.91324067D-04
 -0.18264813D-03  0.64227957D-17 -0.73214984D-16 -0.76967361D-16
END DATA
 TOTAL ENERGY =       -0.499811532959 THE VIRIAL(-V/T)=   2.00014506
