 TITLE
GAUSSIAN              1 MOL ORBITALS     34 PRIMITIVES        2 NUCLEI
  H    1    (CENTRE  1)   0.00000000  0.00000000  0.00000000  CHARGE =  1.0
  H    2    (CENTRE  2)   0.00000000  0.00000000 11.33835675  CHARGE =  0.0
CENTRE ASSIGNMENTS    1  1  1  1  1  1  1  1  1  1  1  1  1  1  1  1  1  2  2  2
CENTRE ASSIGNMENTS    2  2  2  2  2  2  2  2  2  2  2  2  2  2
TYPE ASSIGNMENTS      1  1  1  1  1  2  3  4  2  3  4  5  6  7  8  9 10  1  1  1
TYPE ASSIGNMENTS      1  1  2  3  4  2  3  4  5  6  7  8  9 10
EXPONENTS  0.3387000D+02 0.5095000D+01 0.1159000D+01 0.3258000D+00 0.1027000D+00
EXPONENTS  0.1407000D+01 0.1407000D+01 0.1407000D+01 0.3880000D+00 0.3880000D+00
EXPONENTS  0.3880000D+00 0.1057000D+01 0.1057000D+01 0.1057000D+01 0.1057000D+01
EXPONENTS  0.1057000D+01 0.1057000D+01 0.3387000D+02 0.5095000D+01 0.1159000D+01
EXPONENTS  0.3258000D+00 0.1027000D+00 0.1407000D+01 0.1407000D+01 0.1407000D+01
EXPONENTS  0.3880000D+00 0.3880000D+00 0.3880000D+00 0.1057000D+01 0.1057000D+01
EXPONENTS  0.1057000D+01 0.1057000D+01 0.1057000D+01 0.1057000D+01
MO    1     MO 0.0        OCC NO =    1.0000000  ORB. ENERGY =   -0.499810
  0.60717743D-01  0.10950695D+00  0.16146793D+00  0.15487115D+00  0.49575119D-01
 -0.37199926D-16 -0.45407007D-16 -0.22064474D-07 -0.13121900D-17  0.44715493D-16
  0.21635640D-07 -0.13166472D-08 -0.13166472D-08  0.26332944D-08 -0.17736669D-18
  0.64387882D-17  0.43582973D-16  0.11843602D-04  0.21360425D-04  0.31495934D-04
 -0.90082176D-04  0.60289374D-04  0.21936287D-15 -0.15569575D-15  0.13907880D-04
 -0.49640376D-16  0.45925188D-16 -0.98420565D-05 -0.66603458D-06 -0.66603458D-06
  0.13320692D-05  0.64511649D-19  0.67171959D-16 -0.10046645D-16
END DATA
 TOTAL ENERGY =       -0.499809867078 THE VIRIAL(-V/T)=   2.00004701
