 TITLE
GAUSSIAN              1 MOL ORBITALS     34 PRIMITIVES        2 NUCLEI
  H    1    (CENTRE  1)   0.00000000  0.00000000  0.00000000  CHARGE =  1.0
  H    2    (CENTRE  2)   0.00000000  0.00000000 13.22808287  CHARGE =  0.0
CENTRE ASSIGNMENTS    1  1  1  1  1  1  1  1  1  1  1  1  1  1  1  1  1  2  2  2
CENTRE ASSIGNMENTS    2  2  2  2  2  2  2  2  2  2  2  2  2  2
TYPE ASSIGNMENTS      1  1  1  1  1  2  3  4  2  3  4  5  6  7  8  9 10  1  1  1
TYPE ASSIGNMENTS      1  1  2  3  4  2  3  4  5  6  7  8  9 10
EXPONENTS  0.3387000D+02 0.5095000D+01 0.1159000D+01 0.3258000D+00 0.1027000D+00
EXPONENTS  0.1407000D+01 0.1407000D+01 0.1407000D+01 0.3880000D+00 0.3880000D+00
EXPONENTS  0.3880000D+00 0.1057000D+01 0.1057000D+01 0.1057000D+01 0.1057000D+01
EXPONENTS  0.1057000D+01 0.1057000D+01 0.3387000D+02 0.5095000D+01 0.1159000D+01
EXPONENTS  0.3258000D+00 0.1027000D+00 0.1407000D+01 0.1407000D+01 0.1407000D+01
EXPONENTS  0.3880000D+00 0.3880000D+00 0.3880000D+00 0.1057000D+01 0.1057000D+01
EXPONENTS  0.1057000D+01 0.1057000D+01 0.1057000D+01 0.1057000D+01
MO    1     MO 0.0        OCC NO =    1.0000000  ORB. ENERGY =   -0.499810
  0.60717760D-01  0.10950698D+00  0.16146798D+00  0.15487132D+00  0.49575073D-01
  0.77998735D-16 -0.35255972D-16 -0.16389305D-09 -0.14163220D-16  0.11342084D-16
  0.14146408D-09 -0.62456732D-11 -0.62456671D-11  0.12491340D-10 -0.26663233D-18
  0.15792328D-15 -0.39857731D-16  0.22307578D-05  0.40232636D-05  0.59322998D-05
 -0.16296556D-04  0.10334351D-04 -0.60087207D-16 -0.38669512D-15  0.71380821D-06
  0.14237258D-16  0.33012063D-16 -0.48547968D-06 -0.20219011D-07 -0.20219011D-07
  0.40438022D-07 -0.49695105D-18 -0.25294827D-16 -0.68184971D-18
END DATA
 TOTAL ENERGY =       -0.499809812952 THE VIRIAL(-V/T)=   2.00004543
