 TITLE
GAUSSIAN              1 MOL ORBITALS     34 PRIMITIVES        2 NUCLEI
  H    1    (CENTRE  1)   0.00000000  0.00000000  0.00000000  CHARGE =  1.0
  H    2    (CENTRE  2)   0.00000000  0.00000000 11.52732936  CHARGE =  0.0
CENTRE ASSIGNMENTS    1  1  1  1  1  1  1  1  1  1  1  1  1  1  1  1  1  2  2  2
CENTRE ASSIGNMENTS    2  2  2  2  2  2  2  2  2  2  2  2  2  2
TYPE ASSIGNMENTS      1  1  1  1  1  2  3  4  2  3  4  5  6  7  8  9 10  1  1  1
TYPE ASSIGNMENTS      1  1  2  3  4  2  3  4  5  6  7  8  9 10
EXPONENTS  0.3387000D+02 0.5095000D+01 0.1159000D+01 0.3258000D+00 0.1027000D+00
EXPONENTS  0.1407000D+01 0.1407000D+01 0.1407000D+01 0.3880000D+00 0.3880000D+00
EXPONENTS  0.3880000D+00 0.1057000D+01 0.1057000D+01 0.1057000D+01 0.1057000D+01
EXPONENTS  0.1057000D+01 0.1057000D+01 0.3387000D+02 0.5095000D+01 0.1159000D+01
EXPONENTS  0.3258000D+00 0.1027000D+00 0.1407000D+01 0.1407000D+01 0.1407000D+01
EXPONENTS  0.3880000D+00 0.3880000D+00 0.3880000D+00 0.1057000D+01 0.1057000D+01
EXPONENTS  0.1057000D+01 0.1057000D+01 0.1057000D+01 0.1057000D+01
MO    1     MO 0.0        OCC NO =    1.0000000  ORB. ENERGY =   -0.499810
  0.60717749D-01  0.10950696D+00  0.16146795D+00  0.15487119D+00  0.49575110D-01
  0.68188288D-16  0.23667694D-16 -0.14372566D-07 -0.27297596D-16 -0.44620112D-16
  0.14018555D-07 -0.81626597D-09 -0.81626596D-09  0.16325319D-08  0.21612697D-19
 -0.11096260D-17 -0.12332754D-16  0.10357893D-04  0.18680886D-04  0.27544956D-04
 -0.78273156D-04  0.51919280D-04 -0.24314791D-15 -0.34763757D-15  0.10677894D-04
  0.24047754D-16  0.20933405D-17 -0.75160763D-05 -0.48815516D-06 -0.48815516D-06
  0.97631031D-06  0.51223981D-18  0.18724449D-15 -0.14077803D-16
END DATA
 TOTAL ENERGY =       -0.499809852639 THE VIRIAL(-V/T)=   2.00004657
