 TITLE
GAUSSIAN              1 MOL ORBITALS     34 PRIMITIVES        2 NUCLEI
  H    1    (CENTRE  1)   0.00000000  0.00000000  0.00000000  CHARGE =  1.0
  H    2    (CENTRE  2)   0.00000000  0.00000000  4.72431531  CHARGE =  0.0
CENTRE ASSIGNMENTS    1  1  1  1  1  1  1  1  1  1  1  1  1  1  1  1  1  2  2  2
CENTRE ASSIGNMENTS    2  2  2  2  2  2  2  2  2  2  2  2  2  2
TYPE ASSIGNMENTS      1  1  1  1  1  2  3  4  2  3  4  5  6  7  8  9 10  1  1  1
TYPE ASSIGNMENTS      1  1  2  3  4  2  3  4  5  6  7  8  9 10
EXPONENTS  0.3387000D+02 0.5095000D+01 0.1159000D+01 0.3258000D+00 0.1027000D+00
EXPONENTS  0.1407000D+01 0.1407000D+01 0.1407000D+01 0.3880000D+00 0.3880000D+00
EXPONENTS  0.3880000D+00 0.1057000D+01 0.1057000D+01 0.1057000D+01 0.1057000D+01
EXPONENTS  0.1057000D+01 0.1057000D+01 0.3387000D+02 0.5095000D+01 0.1159000D+01
EXPONENTS  0.3258000D+00 0.1027000D+00 0.1407000D+01 0.1407000D+01 0.1407000D+01
EXPONENTS  0.3880000D+00 0.3880000D+00 0.3880000D+00 0.1057000D+01 0.1057000D+01
EXPONENTS  0.1057000D+01 0.1057000D+01 0.1057000D+01 0.1057000D+01
MO    1     MO 0.0        OCC NO =    1.0000000  ORB. ENERGY =   -0.499812
  0.60709075D-01  0.10949132D+00  0.16144488D+00  0.15493991D+00  0.49484724D-01
 -0.18185256D-15 -0.54119998D-16  0.75105114D-04  0.13003574D-16  0.22756769D-16
 -0.60632258D-04  0.85023960D-05  0.85023960D-05 -0.17004792D-04  0.89006954D-20
 -0.17151449D-16 -0.19102591D-16  0.26152254D-04  0.47166668D-04  0.69547224D-04
 -0.52750723D-03  0.35329671D-03  0.45873566D-15  0.27682126D-15  0.23945839D-05
 -0.61117658D-16 -0.24129385D-16  0.14701630D-03 -0.17475445D-03 -0.17475445D-03
  0.34950890D-03 -0.25147059D-16 -0.11775082D-15 -0.15083502D-15
END DATA
 TOTAL ENERGY =       -0.499811668514 THE VIRIAL(-V/T)=   2.00016115
