 TITLE
GAUSSIAN              1 MOL ORBITALS     34 PRIMITIVES        2 NUCLEI
  H    1    (CENTRE  1)   0.00000000  0.00000000  0.00000000  CHARGE =  1.0
  H    2    (CENTRE  2)   0.00000000  0.00000000  9.25965801  CHARGE =  0.0
CENTRE ASSIGNMENTS    1  1  1  1  1  1  1  1  1  1  1  1  1  1  1  1  1  2  2  2
CENTRE ASSIGNMENTS    2  2  2  2  2  2  2  2  2  2  2  2  2  2
TYPE ASSIGNMENTS      1  1  1  1  1  2  3  4  2  3  4  5  6  7  8  9 10  1  1  1
TYPE ASSIGNMENTS      1  1  2  3  4  2  3  4  5  6  7  8  9 10
EXPONENTS  0.3387000D+02 0.5095000D+01 0.1159000D+01 0.3258000D+00 0.1027000D+00
EXPONENTS  0.1407000D+01 0.1407000D+01 0.1407000D+01 0.3880000D+00 0.3880000D+00
EXPONENTS  0.3880000D+00 0.1057000D+01 0.1057000D+01 0.1057000D+01 0.1057000D+01
EXPONENTS  0.1057000D+01 0.1057000D+01 0.3387000D+02 0.5095000D+01 0.1159000D+01
EXPONENTS  0.3258000D+00 0.1027000D+00 0.1407000D+01 0.1407000D+01 0.1407000D+01
EXPONENTS  0.3880000D+00 0.3880000D+00 0.3880000D+00 0.1057000D+01 0.1057000D+01
EXPONENTS  0.1057000D+01 0.1057000D+01 0.1057000D+01 0.1057000D+01
MO    1     MO 0.0        OCC NO =    1.0000000  ORB. ENERGY =   -0.499810
  0.60717094D-01  0.10950578D+00  0.16146621D+00  0.15487139D+00  0.49574099D-01
  0.83663820D-16 -0.26949955D-16 -0.84873072D-06 -0.16176680D-16  0.61454626D-17
  0.96970429D-06 -0.87937946D-07 -0.87937946D-07  0.17587589D-06  0.56153822D-18
 -0.63361710D-18  0.10167636D-17  0.25465063D-04  0.45927290D-04  0.67719763D-04
 -0.22779807D-03  0.19466542D-03  0.23294264D-15 -0.12158995D-15  0.13249483D-03
 -0.13014009D-16  0.32559554D-16 -0.10339517D-03 -0.98254509D-05 -0.98254509D-05
  0.19650902D-04 -0.51423108D-18 -0.14665849D-15  0.29479982D-16
END DATA
 TOTAL ENERGY =       -0.499810463858 THE VIRIAL(-V/T)=   2.00007090
