 TITLE
GAUSSIAN              1 MOL ORBITALS     34 PRIMITIVES        2 NUCLEI
  H    1    (CENTRE  1)   0.00000000  0.00000000  0.00000000  CHARGE =  1.0
  H    2    (CENTRE  2)   0.00000000  0.00000000  2.64561657  CHARGE =  0.0
CENTRE ASSIGNMENTS    1  1  1  1  1  1  1  1  1  1  1  1  1  1  1  1  1  2  2  2
CENTRE ASSIGNMENTS    2  2  2  2  2  2  2  2  2  2  2  2  2  2
TYPE ASSIGNMENTS      1  1  1  1  1  2  3  4  2  3  4  5  6  7  8  9 10  1  1  1
TYPE ASSIGNMENTS      1  1  2  3  4  2  3  4  5  6  7  8  9 10
EXPONENTS  0.3387000D+02 0.5095000D+01 0.1159000D+01 0.3258000D+00 0.1027000D+00
EXPONENTS  0.1407000D+01 0.1407000D+01 0.1407000D+01 0.3880000D+00 0.3880000D+00
EXPONENTS  0.3880000D+00 0.1057000D+01 0.1057000D+01 0.1057000D+01 0.1057000D+01
EXPONENTS  0.1057000D+01 0.1057000D+01 0.3387000D+02 0.5095000D+01 0.1159000D+01
EXPONENTS  0.3258000D+00 0.1027000D+00 0.1407000D+01 0.1407000D+01 0.1407000D+01
EXPONENTS  0.3880000D+00 0.3880000D+00 0.3880000D+00 0.1057000D+01 0.1057000D+01
EXPONENTS  0.1057000D+01 0.1057000D+01 0.1057000D+01 0.1057000D+01
MO    1     MO 0.0        OCC NO =    1.0000000  ORB. ENERGY =   -0.499811
  0.60724762D-01  0.10951961D+00  0.16148660D+00  0.15481011D+00  0.49495072D-01
  0.74956954D-16 -0.50433071D-16  0.50539037D-04 -0.20773363D-16 -0.11974852D-16
 -0.17213163D-03  0.59762362D-04  0.59762362D-04 -0.11952472D-03  0.67501280D-17
 -0.13645328D-15  0.56692213D-16 -0.82392205D-05 -0.14859773D-04 -0.21910727D-04
  0.42172306D-04  0.93265430D-04 -0.38204837D-15 -0.30327129D-15  0.11530013D-02
  0.56533051D-16  0.20634394D-16 -0.37325116D-03  0.16067037D-04  0.16067037D-04
 -0.32134074D-04 -0.21114092D-16 -0.17112603D-15  0.60472053D-16
END DATA
 TOTAL ENERGY =       -0.499810564262 THE VIRIAL(-V/T)=   2.00004894
