 TITLE
GAUSSIAN              1 MOL ORBITALS     34 PRIMITIVES        2 NUCLEI
  H    1    (CENTRE  1)   0.00000000  0.00000000  0.00000000  CHARGE =  1.0
  H    2    (CENTRE  2)   0.00000000  0.00000000  7.18095927  CHARGE =  0.0
CENTRE ASSIGNMENTS    1  1  1  1  1  1  1  1  1  1  1  1  1  1  1  1  1  2  2  2
CENTRE ASSIGNMENTS    2  2  2  2  2  2  2  2  2  2  2  2  2  2
TYPE ASSIGNMENTS      1  1  1  1  1  2  3  4  2  3  4  5  6  7  8  9 10  1  1  1
TYPE ASSIGNMENTS      1  1  2  3  4  2  3  4  5  6  7  8  9 10
EXPONENTS  0.3387000D+02 0.5095000D+01 0.1159000D+01 0.3258000D+00 0.1027000D+00
EXPONENTS  0.1407000D+01 0.1407000D+01 0.1407000D+01 0.3880000D+00 0.3880000D+00
EXPONENTS  0.3880000D+00 0.1057000D+01 0.1057000D+01 0.1057000D+01 0.1057000D+01
EXPONENTS  0.1057000D+01 0.1057000D+01 0.3387000D+02 0.5095000D+01 0.1159000D+01
EXPONENTS  0.3258000D+00 0.1027000D+00 0.1407000D+01 0.1407000D+01 0.1407000D+01
EXPONENTS  0.3880000D+00 0.3880000D+00 0.3880000D+00 0.1057000D+01 0.1057000D+01
EXPONENTS  0.1057000D+01 0.1057000D+01 0.1057000D+01 0.1057000D+01
MO    1     MO 0.0        OCC NO =    1.0000000  ORB. ENERGY =   -0.499811
  0.60712444D-01  0.10949739D+00  0.16145384D+00  0.15489505D+00  0.49555907D-01
  0.96754157D-16 -0.59910439D-15 -0.17091236D-05 -0.46954177D-17  0.10542862D-15
  0.48685861D-05 -0.63924989D-06 -0.63924989D-06  0.12784998D-05  0.32990006D-20
 -0.17235261D-17  0.41199667D-17  0.12597831D-04  0.22720707D-04  0.33501669D-04
 -0.10635884D-03  0.25061836D-03  0.45151914D-15  0.35882382D-15  0.55172373D-04
 -0.41112634D-16 -0.44495783D-16 -0.99097205D-04  0.98141612D-05  0.98141612D-05
 -0.19628322D-04 -0.25652298D-17 -0.40862002D-16 -0.37678498D-16
END DATA
 TOTAL ENERGY =       -0.499811284257 THE VIRIAL(-V/T)=   2.00013573
