 TITLE
GAUSSIAN              1 MOL ORBITALS     34 PRIMITIVES        2 NUCLEI
  H    1    (CENTRE  1)   0.00000000  0.00000000  0.00000000  CHARGE =  1.0
  H    2    (CENTRE  2)   0.00000000  0.00000000  5.85815099  CHARGE =  0.0
CENTRE ASSIGNMENTS    1  1  1  1  1  1  1  1  1  1  1  1  1  1  1  1  1  2  2  2
CENTRE ASSIGNMENTS    2  2  2  2  2  2  2  2  2  2  2  2  2  2
TYPE ASSIGNMENTS      1  1  1  1  1  2  3  4  2  3  4  5  6  7  8  9 10  1  1  1
TYPE ASSIGNMENTS      1  1  2  3  4  2  3  4  5  6  7  8  9 10
EXPONENTS  0.3387000D+02 0.5095000D+01 0.1159000D+01 0.3258000D+00 0.1027000D+00
EXPONENTS  0.1407000D+01 0.1407000D+01 0.1407000D+01 0.3880000D+00 0.3880000D+00
EXPONENTS  0.3880000D+00 0.1057000D+01 0.1057000D+01 0.1057000D+01 0.1057000D+01
EXPONENTS  0.1057000D+01 0.1057000D+01 0.3387000D+02 0.5095000D+01 0.1159000D+01
EXPONENTS  0.3258000D+00 0.1027000D+00 0.1407000D+01 0.1407000D+01 0.1407000D+01
EXPONENTS  0.3880000D+00 0.3880000D+00 0.3880000D+00 0.1057000D+01 0.1057000D+01
EXPONENTS  0.1057000D+01 0.1057000D+01 0.1057000D+01 0.1057000D+01
MO    1     MO 0.0        OCC NO =    1.0000000  ORB. ENERGY =   -0.499812
  0.60709250D-01  0.10949163D+00  0.16144535D+00  0.15492650D+00  0.49525085D-01
  0.18195173D-15 -0.10447830D-15  0.27275546D-04  0.58862463D-16  0.60179450D-16
 -0.14325883D-04  0.79276760D-06  0.79276760D-06 -0.15855352D-05  0.11304464D-20
 -0.54931082D-16 -0.59657183D-16  0.46626673D-04  0.84093125D-04  0.12399526D-03
 -0.29326863D-03  0.30344913D-03 -0.25654427D-15  0.18103014D-15 -0.27250619D-03
  0.22467764D-16 -0.51226348D-16  0.31213759D-03  0.10786385D-03  0.10786385D-03
 -0.21572769D-03 -0.14774406D-16  0.88631444D-16 -0.45428375D-16
END DATA
 TOTAL ENERGY =       -0.499811847590 THE VIRIAL(-V/T)=   2.00014999
