 TITLE
GAUSSIAN              1 MOL ORBITALS     34 PRIMITIVES        2 NUCLEI
  H    1    (CENTRE  1)   0.00000000  0.00000000  0.00000000  CHARGE =  1.0
  H    2    (CENTRE  2)   0.00000000  0.00000000  3.96842486  CHARGE =  0.0
CENTRE ASSIGNMENTS    1  1  1  1  1  1  1  1  1  1  1  1  1  1  1  1  1  2  2  2
CENTRE ASSIGNMENTS    2  2  2  2  2  2  2  2  2  2  2  2  2  2
TYPE ASSIGNMENTS      1  1  1  1  1  2  3  4  2  3  4  5  6  7  8  9 10  1  1  1
TYPE ASSIGNMENTS      1  1  2  3  4  2  3  4  5  6  7  8  9 10
EXPONENTS  0.3387000D+02 0.5095000D+01 0.1159000D+01 0.3258000D+00 0.1027000D+00
EXPONENTS  0.1407000D+01 0.1407000D+01 0.1407000D+01 0.3880000D+00 0.3880000D+00
EXPONENTS  0.3880000D+00 0.1057000D+01 0.1057000D+01 0.1057000D+01 0.1057000D+01
EXPONENTS  0.1057000D+01 0.1057000D+01 0.3387000D+02 0.5095000D+01 0.1159000D+01
EXPONENTS  0.3258000D+00 0.1027000D+00 0.1407000D+01 0.1407000D+01 0.1407000D+01
EXPONENTS  0.3880000D+00 0.3880000D+00 0.3880000D+00 0.1057000D+01 0.1057000D+01
EXPONENTS  0.1057000D+01 0.1057000D+01 0.1057000D+01 0.1057000D+01
MO    1     MO 0.0        OCC NO =    1.0000000  ORB. ENERGY =   -0.499811
  0.60708374D-01  0.10949005D+00  0.16144302D+00  0.15495395D+00  0.49450831D-01
  0.11417399D-14  0.68396867D-15  0.10163270D-03  0.77293296D-16  0.19065983D-16
 -0.84745827D-04  0.57813624D-05  0.57813624D-05 -0.11562725D-04  0.20417076D-17
 -0.39173666D-15 -0.31335196D-15  0.48235549D-04  0.86994799D-04  0.12827378D-03
 -0.49842374D-03  0.31523152D-03 -0.27118684D-15  0.25063072D-15 -0.37390775D-03
  0.34385810D-15  0.17692141D-15 -0.12365476D-03 -0.18972844D-03 -0.18972844D-03
  0.37945688D-03 -0.22129229D-16 -0.34583930D-15 -0.27799300D-15
END DATA
 TOTAL ENERGY =       -0.499811267174 THE VIRIAL(-V/T)=   2.00013033
