 TITLE
GAUSSIAN              1 MOL ORBITALS     34 PRIMITIVES        2 NUCLEI
  H    1    (CENTRE  1)   0.00000000  0.00000000  0.00000000  CHARGE =  1.0
  H    2    (CENTRE  2)   0.00000000  0.00000000 10.39349369  CHARGE =  0.0
CENTRE ASSIGNMENTS    1  1  1  1  1  1  1  1  1  1  1  1  1  1  1  1  1  2  2  2
CENTRE ASSIGNMENTS    2  2  2  2  2  2  2  2  2  2  2  2  2  2
TYPE ASSIGNMENTS      1  1  1  1  1  2  3  4  2  3  4  5  6  7  8  9 10  1  1  1
TYPE ASSIGNMENTS      1  1  2  3  4  2  3  4  5  6  7  8  9 10
EXPONENTS  0.3387000D+02 0.5095000D+01 0.1159000D+01 0.3258000D+00 0.1027000D+00
EXPONENTS  0.1407000D+01 0.1407000D+01 0.1407000D+01 0.3880000D+00 0.3880000D+00
EXPONENTS  0.3880000D+00 0.1057000D+01 0.1057000D+01 0.1057000D+01 0.1057000D+01
EXPONENTS  0.1057000D+01 0.1057000D+01 0.3387000D+02 0.5095000D+01 0.1159000D+01
EXPONENTS  0.3258000D+00 0.1027000D+00 0.1407000D+01 0.1407000D+01 0.1407000D+01
EXPONENTS  0.3880000D+00 0.3880000D+00 0.3880000D+00 0.1057000D+01 0.1057000D+01
EXPONENTS  0.1057000D+01 0.1057000D+01 0.1057000D+01 0.1057000D+01
MO    1     MO 0.0        OCC NO =    1.0000000  ORB. ENERGY =   -0.499810
  0.60717650D-01  0.10950678D+00  0.16146769D+00  0.15487085D+00  0.49575112D-01
  0.79454214D-16 -0.26318295D-17 -0.14982686D-06 -0.95204404D-17  0.52082696D-17
  0.15440991D-06 -0.11415763D-07 -0.11415763D-07  0.22831526D-07  0.14624131D-18
  0.56545317D-18  0.24061672D-17  0.20141785D-04  0.36326539D-04  0.53563461D-04
 -0.16061889D-03  0.11502783D-03 -0.47680165D-16  0.42072154D-15  0.45647383D-04
 -0.22830504D-17 -0.35122418D-16 -0.33401045D-04 -0.27114733D-05 -0.27114733D-05
  0.54229466D-05 -0.12094938D-15 -0.26755947D-17 -0.42655434D-19
END DATA
 TOTAL ENERGY =       -0.499810018071 THE VIRIAL(-V/T)=   2.00005217
