 TITLE
GAUSSIAN              1 MOL ORBITALS     34 PRIMITIVES        2 NUCLEI
  H    1    (CENTRE  1)   0.00000000  0.00000000  0.00000000  CHARGE =  1.0
  H    2    (CENTRE  2)   0.00000000  0.00000000  4.53534270  CHARGE =  0.0
CENTRE ASSIGNMENTS    1  1  1  1  1  1  1  1  1  1  1  1  1  1  1  1  1  2  2  2
CENTRE ASSIGNMENTS    2  2  2  2  2  2  2  2  2  2  2  2  2  2
TYPE ASSIGNMENTS      1  1  1  1  1  2  3  4  2  3  4  5  6  7  8  9 10  1  1  1
TYPE ASSIGNMENTS      1  1  2  3  4  2  3  4  5  6  7  8  9 10
EXPONENTS  0.3387000D+02 0.5095000D+01 0.1159000D+01 0.3258000D+00 0.1027000D+00
EXPONENTS  0.1407000D+01 0.1407000D+01 0.1407000D+01 0.3880000D+00 0.3880000D+00
EXPONENTS  0.3880000D+00 0.1057000D+01 0.1057000D+01 0.1057000D+01 0.1057000D+01
EXPONENTS  0.1057000D+01 0.1057000D+01 0.3387000D+02 0.5095000D+01 0.1159000D+01
EXPONENTS  0.3258000D+00 0.1027000D+00 0.1407000D+01 0.1407000D+01 0.1407000D+01
EXPONENTS  0.3880000D+00 0.3880000D+00 0.3880000D+00 0.1057000D+01 0.1057000D+01
EXPONENTS  0.1057000D+01 0.1057000D+01 0.1057000D+01 0.1057000D+01
MO    1     MO 0.0        OCC NO =    1.0000000  ORB. ENERGY =   -0.499812
  0.60708298D-01  0.10948992D+00  0.16144282D+00  0.15494713D+00  0.49474191D-01
  0.20957672D-15  0.75845212D-15  0.78935440D-04 -0.38834331D-16 -0.77906643D-16
 -0.65178017D-04  0.83482183D-05  0.83482183D-05 -0.16696437D-04  0.65572895D-19
 -0.65501659D-18 -0.42540612D-16  0.22584633D-04  0.40732316D-04  0.60059776D-04
 -0.53101875D-03  0.34944012D-03 -0.14275337D-15  0.92312033D-17 -0.41877443D-04
 -0.13776876D-16  0.34603441D-16  0.68214282D-04 -0.23955104D-03 -0.23955104D-03
  0.47910209D-03 -0.10290571D-15 -0.14441557D-15 -0.74029869D-15
END DATA
 TOTAL ENERGY =       -0.499811605679 THE VIRIAL(-V/T)=   2.00015544
