 TITLE
GAUSSIAN              1 MOL ORBITALS     34 PRIMITIVES        2 NUCLEI
  H    1    (CENTRE  1)   0.00000000  0.00000000  0.00000000  CHARGE =  1.0
  H    2    (CENTRE  2)   0.00000000  0.00000000  9.63760324  CHARGE =  0.0
CENTRE ASSIGNMENTS    1  1  1  1  1  1  1  1  1  1  1  1  1  1  1  1  1  2  2  2
CENTRE ASSIGNMENTS    2  2  2  2  2  2  2  2  2  2  2  2  2  2
TYPE ASSIGNMENTS      1  1  1  1  1  2  3  4  2  3  4  5  6  7  8  9 10  1  1  1
TYPE ASSIGNMENTS      1  1  2  3  4  2  3  4  5  6  7  8  9 10
EXPONENTS  0.3387000D+02 0.5095000D+01 0.1159000D+01 0.3258000D+00 0.1027000D+00
EXPONENTS  0.1407000D+01 0.1407000D+01 0.1407000D+01 0.3880000D+00 0.3880000D+00
EXPONENTS  0.3880000D+00 0.1057000D+01 0.1057000D+01 0.1057000D+01 0.1057000D+01
EXPONENTS  0.1057000D+01 0.1057000D+01 0.3387000D+02 0.5095000D+01 0.1159000D+01
EXPONENTS  0.3258000D+00 0.1027000D+00 0.1407000D+01 0.1407000D+01 0.1407000D+01
EXPONENTS  0.3880000D+00 0.3880000D+00 0.3880000D+00 0.1057000D+01 0.1057000D+01
EXPONENTS  0.1057000D+01 0.1057000D+01 0.1057000D+01 0.1057000D+01
MO    1     MO 0.0        OCC NO =    1.0000000  ORB. ENERGY =   -0.499810
  0.60717374D-01  0.10950629D+00  0.16146695D+00  0.15487089D+00  0.49574709D-01
 -0.39505419D-16  0.84925970D-16 -0.51358565D-06  0.82247145D-17 -0.12265356D-16
  0.56269110D-06 -0.47801422D-07 -0.47801422D-07  0.95602843D-07  0.49876141D-19
 -0.41310479D-18  0.51377257D-17  0.25023611D-04  0.45131113D-04  0.66545800D-04
 -0.21321910D-03  0.16877331D-03 -0.62494244D-17  0.87693662D-17  0.97882005D-04
  0.84038412D-17 -0.31464544D-17 -0.74439186D-04 -0.67762172D-05 -0.67762172D-05
  0.13552434D-04 -0.13792851D-17 -0.17064971D-16  0.13169103D-17
END DATA
 TOTAL ENERGY =       -0.499810279615 THE VIRIAL(-V/T)=   2.00006260
