 TITLE
GAUSSIAN              1 MOL ORBITALS     34 PRIMITIVES        2 NUCLEI
  H    1    (CENTRE  1)   0.00000000  0.00000000  0.00000000  CHARGE =  1.0
  H    2    (CENTRE  2)   0.00000000  0.00000000 11.14938413  CHARGE =  0.0
CENTRE ASSIGNMENTS    1  1  1  1  1  1  1  1  1  1  1  1  1  1  1  1  1  2  2  2
CENTRE ASSIGNMENTS    2  2  2  2  2  2  2  2  2  2  2  2  2  2
TYPE ASSIGNMENTS      1  1  1  1  1  2  3  4  2  3  4  5  6  7  8  9 10  1  1  1
TYPE ASSIGNMENTS      1  1  2  3  4  2  3  4  5  6  7  8  9 10
EXPONENTS  0.3387000D+02 0.5095000D+01 0.1159000D+01 0.3258000D+00 0.1027000D+00
EXPONENTS  0.1407000D+01 0.1407000D+01 0.1407000D+01 0.3880000D+00 0.3880000D+00
EXPONENTS  0.3880000D+00 0.1057000D+01 0.1057000D+01 0.1057000D+01 0.1057000D+01
EXPONENTS  0.1057000D+01 0.1057000D+01 0.3387000D+02 0.5095000D+01 0.1159000D+01
EXPONENTS  0.3258000D+00 0.1027000D+00 0.1407000D+01 0.1407000D+01 0.1407000D+01
EXPONENTS  0.3880000D+00 0.3880000D+00 0.3880000D+00 0.1057000D+01 0.1057000D+01
EXPONENTS  0.1057000D+01 0.1057000D+01 0.1057000D+01 0.1057000D+01
MO    1     MO 0.0        OCC NO =    1.0000000  ORB. ENERGY =   -0.499810
  0.60717734D-01  0.10950693D+00  0.16146791D+00  0.15487110D+00  0.49575127D-01
 -0.64772379D-16  0.60144088D-16 -0.33379489D-07  0.29808079D-16 -0.15178091D-16
  0.32978591D-07 -0.20935053D-08 -0.20935053D-08  0.41870105D-08 -0.38867145D-18
 -0.47693856D-18  0.18846087D-18  0.13426684D-04  0.24215577D-04  0.35705855D-04
 -0.10287170D-03  0.69554544D-04 -0.12547364D-15  0.43081007D-16  0.17964067D-04
  0.27175374D-16 -0.24216788D-16 -0.12785562D-04 -0.90011637D-06 -0.90011637D-06
  0.18002327D-05  0.32709497D-17 -0.70546842D-18  0.14163744D-16
END DATA
 TOTAL ENERGY =       -0.499809885640 THE VIRIAL(-V/T)=   2.00004760
