 TITLE
GAUSSIAN              1 MOL ORBITALS     34 PRIMITIVES        2 NUCLEI
  H    1    (CENTRE  1)   0.00000000  0.00000000  0.00000000  CHARGE =  1.0
  H    2    (CENTRE  2)   0.00000000  0.00000000  8.69274017  CHARGE =  0.0
CENTRE ASSIGNMENTS    1  1  1  1  1  1  1  1  1  1  1  1  1  1  1  1  1  2  2  2
CENTRE ASSIGNMENTS    2  2  2  2  2  2  2  2  2  2  2  2  2  2
TYPE ASSIGNMENTS      1  1  1  1  1  2  3  4  2  3  4  5  6  7  8  9 10  1  1  1
TYPE ASSIGNMENTS      1  1  2  3  4  2  3  4  5  6  7  8  9 10
EXPONENTS  0.3387000D+02 0.5095000D+01 0.1159000D+01 0.3258000D+00 0.1027000D+00
EXPONENTS  0.1407000D+01 0.1407000D+01 0.1407000D+01 0.3880000D+00 0.3880000D+00
EXPONENTS  0.3880000D+00 0.1057000D+01 0.1057000D+01 0.1057000D+01 0.1057000D+01
EXPONENTS  0.1057000D+01 0.1057000D+01 0.3387000D+02 0.5095000D+01 0.1159000D+01
EXPONENTS  0.3258000D+00 0.1027000D+00 0.1407000D+01 0.1407000D+01 0.1407000D+01
EXPONENTS  0.3880000D+00 0.3880000D+00 0.3880000D+00 0.1057000D+01 0.1057000D+01
EXPONENTS  0.1057000D+01 0.1057000D+01 0.1057000D+01 0.1057000D+01
MO    1     MO 0.0        OCC NO =    1.0000000  ORB. ENERGY =   -0.499811
  0.60716394D-01  0.10950452D+00  0.16146435D+00  0.15487348D+00  0.49572178D-01
  0.12883423D-19 -0.89860954D-16 -0.15352740D-05 -0.13288391D-16  0.62906120D-17
  0.19223042D-05 -0.19031159D-06 -0.19031159D-06  0.38062318D-06 -0.51046077D-18
 -0.61073761D-17 -0.22212259D-16  0.22594624D-04  0.40750334D-04  0.60086344D-04
 -0.22359585D-03  0.22615202D-03  0.30189005D-15 -0.24147945D-15  0.18352814D-03
 -0.38397380D-16  0.30170162D-16 -0.15099665D-03 -0.14813742D-04 -0.14813742D-04
  0.29627484D-04  0.25183720D-17 -0.30759223D-15  0.49283146D-16
END DATA
 TOTAL ENERGY =       -0.499810785349 THE VIRIAL(-V/T)=   2.00008739
