 TITLE
GAUSSIAN              1 MOL ORBITALS     34 PRIMITIVES        2 NUCLEI
  H    1    (CENTRE  1)   0.00000000  0.00000000  0.00000000  CHARGE =  1.0
  H    2    (CENTRE  2)   0.00000000  0.00000000  6.99198666  CHARGE =  0.0
CENTRE ASSIGNMENTS    1  1  1  1  1  1  1  1  1  1  1  1  1  1  1  1  1  2  2  2
CENTRE ASSIGNMENTS    2  2  2  2  2  2  2  2  2  2  2  2  2  2
TYPE ASSIGNMENTS      1  1  1  1  1  2  3  4  2  3  4  5  6  7  8  9 10  1  1  1
TYPE ASSIGNMENTS      1  1  2  3  4  2  3  4  5  6  7  8  9 10
EXPONENTS  0.3387000D+02 0.5095000D+01 0.1159000D+01 0.3258000D+00 0.1027000D+00
EXPONENTS  0.1407000D+01 0.1407000D+01 0.1407000D+01 0.3880000D+00 0.3880000D+00
EXPONENTS  0.3880000D+00 0.1057000D+01 0.1057000D+01 0.1057000D+01 0.1057000D+01
EXPONENTS  0.1057000D+01 0.1057000D+01 0.3387000D+02 0.5095000D+01 0.1159000D+01
EXPONENTS  0.3258000D+00 0.1027000D+00 0.1407000D+01 0.1407000D+01 0.1407000D+01
EXPONENTS  0.3880000D+00 0.3880000D+00 0.3880000D+00 0.1057000D+01 0.1057000D+01
EXPONENTS  0.1057000D+01 0.1057000D+01 0.1057000D+01 0.1057000D+01
MO    1     MO 0.0        OCC NO =    1.0000000  ORB. ENERGY =   -0.499811
  0.60711773D-01  0.10949618D+00  0.16145206D+00  0.15489997D+00  0.49552262D-01
  0.21484095D-15 -0.61154789D-16 -0.83972092D-06 -0.10158987D-15 -0.17448379D-16
  0.47559029D-05 -0.68049893D-06 -0.68049893D-06  0.13609979D-05  0.30751125D-20
  0.39233549D-17 -0.86919392D-17  0.15073274D-04  0.27185270D-04  0.40084665D-04
 -0.10417645D-03  0.25241989D-03 -0.48590170D-16 -0.26512023D-16 -0.63733720D-05
  0.46531260D-17  0.24089126D-16 -0.51351879D-04  0.22848295D-04  0.22848295D-04
 -0.45696590D-04 -0.40830209D-16 -0.23615639D-16  0.58529444D-17
END DATA
 TOTAL ENERGY =       -0.499811280894 THE VIRIAL(-V/T)=   2.00013891
