 TITLE
GAUSSIAN              1 MOL ORBITALS     34 PRIMITIVES        2 NUCLEI
  H    1    (CENTRE  1)   0.00000000  0.00000000  0.00000000  CHARGE =  1.0
  H    2    (CENTRE  2)   0.00000000  0.00000000  8.31479495  CHARGE =  0.0
CENTRE ASSIGNMENTS    1  1  1  1  1  1  1  1  1  1  1  1  1  1  1  1  1  2  2  2
CENTRE ASSIGNMENTS    2  2  2  2  2  2  2  2  2  2  2  2  2  2
TYPE ASSIGNMENTS      1  1  1  1  1  2  3  4  2  3  4  5  6  7  8  9 10  1  1  1
TYPE ASSIGNMENTS      1  1  2  3  4  2  3  4  5  6  7  8  9 10
EXPONENTS  0.3387000D+02 0.5095000D+01 0.1159000D+01 0.3258000D+00 0.1027000D+00
EXPONENTS  0.1407000D+01 0.1407000D+01 0.1407000D+01 0.3880000D+00 0.3880000D+00
EXPONENTS  0.3880000D+00 0.1057000D+01 0.1057000D+01 0.1057000D+01 0.1057000D+01
EXPONENTS  0.1057000D+01 0.1057000D+01 0.3387000D+02 0.5095000D+01 0.1159000D+01
EXPONENTS  0.3258000D+00 0.1027000D+00 0.1407000D+01 0.1407000D+01 0.1407000D+01
EXPONENTS  0.3880000D+00 0.3880000D+00 0.3880000D+00 0.1057000D+01 0.1057000D+01
EXPONENTS  0.1057000D+01 0.1057000D+01 0.1057000D+01 0.1057000D+01
MO    1     MO 0.0        OCC NO =    1.0000000  ORB. ENERGY =   -0.499811
  0.60715699D-01  0.10950326D+00  0.16146250D+00  0.15487625D+00  0.49569913D-01
 -0.46157363D-16 -0.24377250D-15 -0.20217627D-05 -0.46868532D-19  0.18045291D-16
  0.27537590D-05 -0.28881786D-06 -0.28881786D-06  0.57763571D-06  0.87163614D-20
  0.68096167D-17  0.24363141D-17  0.18658822D-04  0.33651953D-04  0.49619785D-04
 -0.20123160D-03  0.23969540D-03 -0.42303559D-15  0.59312822D-15  0.20334905D-03
  0.56259514D-16 -0.68256397D-16 -0.17621540D-03 -0.16866529D-04 -0.16866529D-04
  0.33733058D-04 -0.23404181D-17 -0.18884685D-16  0.66631882D-16
END DATA
 TOTAL ENERGY =       -0.499810998775 THE VIRIAL(-V/T)=   2.00010046
