 TITLE
GAUSSIAN              1 MOL ORBITALS     34 PRIMITIVES        2 NUCLEI
  H    1    (CENTRE  1)   0.00000000  0.00000000  0.00000000  CHARGE =  1.0
  H    2    (CENTRE  2)   0.00000000  0.00000000  8.88171279  CHARGE =  0.0
CENTRE ASSIGNMENTS    1  1  1  1  1  1  1  1  1  1  1  1  1  1  1  1  1  2  2  2
CENTRE ASSIGNMENTS    2  2  2  2  2  2  2  2  2  2  2  2  2  2
TYPE ASSIGNMENTS      1  1  1  1  1  2  3  4  2  3  4  5  6  7  8  9 10  1  1  1
TYPE ASSIGNMENTS      1  1  2  3  4  2  3  4  5  6  7  8  9 10
EXPONENTS  0.3387000D+02 0.5095000D+01 0.1159000D+01 0.3258000D+00 0.1027000D+00
EXPONENTS  0.1407000D+01 0.1407000D+01 0.1407000D+01 0.3880000D+00 0.3880000D+00
EXPONENTS  0.3880000D+00 0.1057000D+01 0.1057000D+01 0.1057000D+01 0.1057000D+01
EXPONENTS  0.1057000D+01 0.1057000D+01 0.3387000D+02 0.5095000D+01 0.1159000D+01
EXPONENTS  0.3258000D+00 0.1027000D+00 0.1407000D+01 0.1407000D+01 0.1407000D+01
EXPONENTS  0.3880000D+00 0.3880000D+00 0.3880000D+00 0.1057000D+01 0.1057000D+01
EXPONENTS  0.1057000D+01 0.1057000D+01 0.1057000D+01 0.1057000D+01
MO    1     MO 0.0        OCC NO =    1.0000000  ORB. ENERGY =   -0.499811
  0.60716670D-01  0.10950501D+00  0.16146508D+00  0.15487255D+00  0.49572987D-01
 -0.79726393D-16 -0.68001857D-16 -0.12889846D-05  0.41622484D-16  0.23370388D-16
  0.15535758D-05 -0.15006273D-06 -0.15006273D-06  0.30012547D-06 -0.12777697D-17
 -0.55325921D-18  0.61788006D-18  0.24024856D-04  0.43329817D-04  0.63889790D-04
 -0.22892709D-03  0.21697879D-03  0.13214305D-15  0.40932835D-15  0.16792741D-03
 -0.43035371D-17 -0.37307887D-16 -0.13540908D-03 -0.13224950D-04 -0.13224950D-04
  0.26449899D-04  0.79435596D-18 -0.36388540D-17 -0.99443987D-17
END DATA
 TOTAL ENERGY =       -0.499810674958 THE VIRIAL(-V/T)=   2.00008139
