 TITLE
GAUSSIAN              1 MOL ORBITALS     34 PRIMITIVES        2 NUCLEI
  H    1    (CENTRE  1)   0.00000000  0.00000000  0.00000000  CHARGE =  1.0
  H    2    (CENTRE  2)   0.00000000  0.00000000  3.02356180  CHARGE =  0.0
CENTRE ASSIGNMENTS    1  1  1  1  1  1  1  1  1  1  1  1  1  1  1  1  1  2  2  2
CENTRE ASSIGNMENTS    2  2  2  2  2  2  2  2  2  2  2  2  2  2
TYPE ASSIGNMENTS      1  1  1  1  1  2  3  4  2  3  4  5  6  7  8  9 10  1  1  1
TYPE ASSIGNMENTS      1  1  2  3  4  2  3  4  5  6  7  8  9 10
EXPONENTS  0.3387000D+02 0.5095000D+01 0.1159000D+01 0.3258000D+00 0.1027000D+00
EXPONENTS  0.1407000D+01 0.1407000D+01 0.1407000D+01 0.3880000D+00 0.3880000D+00
EXPONENTS  0.3880000D+00 0.1057000D+01 0.1057000D+01 0.1057000D+01 0.1057000D+01
EXPONENTS  0.1057000D+01 0.1057000D+01 0.3387000D+02 0.5095000D+01 0.1159000D+01
EXPONENTS  0.3258000D+00 0.1027000D+00 0.1407000D+01 0.1407000D+01 0.1407000D+01
EXPONENTS  0.3880000D+00 0.3880000D+00 0.3880000D+00 0.1057000D+01 0.1057000D+01
EXPONENTS  0.1057000D+01 0.1057000D+01 0.1057000D+01 0.1057000D+01
MO    1     MO 0.0        OCC NO =    1.0000000  ORB. ENERGY =   -0.499811
  0.60712545D-01  0.10949758D+00  0.16145411D+00  0.15490651D+00  0.49462403D-01
  0.73953266D-16 -0.20437585D-15  0.29589052D-04 -0.35519497D-18  0.46699534D-16
 -0.84524332D-04  0.21936936D-04  0.21936936D-04 -0.43873873D-04 -0.79401197D-18
 -0.17038459D-15  0.38417603D-16  0.84467164D-04  0.15234001D-03  0.22462525D-03
 -0.24481344D-03  0.18164726D-03 -0.61213521D-15 -0.90047487D-16  0.77144515D-03
  0.82634589D-16  0.10804775D-16 -0.33777812D-03  0.34984937D-03  0.34984937D-03
 -0.69969874D-03 -0.21148613D-18 -0.18313378D-15  0.77845973D-16
END DATA
 TOTAL ENERGY =       -0.499811193678 THE VIRIAL(-V/T)=   2.00007184
