 TITLE
GAUSSIAN              1 MOL ORBITALS     34 PRIMITIVES        2 NUCLEI
  H    1    (CENTRE  1)   0.00000000  0.00000000  0.00000000  CHARGE =  1.0
  H    2    (CENTRE  2)   0.00000000  0.00000000  8.12582234  CHARGE =  0.0
CENTRE ASSIGNMENTS    1  1  1  1  1  1  1  1  1  1  1  1  1  1  1  1  1  2  2  2
CENTRE ASSIGNMENTS    2  2  2  2  2  2  2  2  2  2  2  2  2  2
TYPE ASSIGNMENTS      1  1  1  1  1  2  3  4  2  3  4  5  6  7  8  9 10  1  1  1
TYPE ASSIGNMENTS      1  1  2  3  4  2  3  4  5  6  7  8  9 10
EXPONENTS  0.3387000D+02 0.5095000D+01 0.1159000D+01 0.3258000D+00 0.1027000D+00
EXPONENTS  0.1407000D+01 0.1407000D+01 0.1407000D+01 0.3880000D+00 0.3880000D+00
EXPONENTS  0.3880000D+00 0.1057000D+01 0.1057000D+01 0.1057000D+01 0.1057000D+01
EXPONENTS  0.1057000D+01 0.1057000D+01 0.3387000D+02 0.5095000D+01 0.1159000D+01
EXPONENTS  0.3258000D+00 0.1027000D+00 0.1407000D+01 0.1407000D+01 0.1407000D+01
EXPONENTS  0.3880000D+00 0.3880000D+00 0.3880000D+00 0.1057000D+01 0.1057000D+01
EXPONENTS  0.1057000D+01 0.1057000D+01 0.1057000D+01 0.1057000D+01
MO    1     MO 0.0        OCC NO =    1.0000000  ORB. ENERGY =   -0.499811
  0.60715274D-01  0.10950250D+00  0.16146137D+00  0.15487820D+00  0.49568399D-01
  0.40011648D-16  0.14503027D-15 -0.22273786D-05 -0.46930332D-16 -0.38388185D-16
  0.31758192D-05 -0.34574154D-06 -0.34574154D-06  0.69148309D-06 -0.14825318D-18
  0.17070538D-17 -0.11495490D-19  0.16443774D-04  0.29657023D-04  0.43729263D-04
 -0.18514031D-03  0.24400820D-03 -0.85719519D-16 -0.22799454D-17  0.20408643D-03
  0.17251168D-16 -0.26797785D-17 -0.18312334D-03 -0.16791417D-04 -0.16791417D-04
  0.33582834D-04  0.52314875D-17  0.95670757D-16 -0.12269495D-15
END DATA
 TOTAL ENERGY =       -0.499811092744 THE VIRIAL(-V/T)=   2.00010727
