 TITLE
GAUSSIAN              1 MOL ORBITALS     34 PRIMITIVES        2 NUCLEI
  H    1    (CENTRE  1)   0.00000000  0.00000000  0.00000000  CHARGE =  1.0
  H    2    (CENTRE  2)   0.00000000  0.00000000  1.70075351  CHARGE =  0.0
CENTRE ASSIGNMENTS    1  1  1  1  1  1  1  1  1  1  1  1  1  1  1  1  1  2  2  2
CENTRE ASSIGNMENTS    2  2  2  2  2  2  2  2  2  2  2  2  2  2
TYPE ASSIGNMENTS      1  1  1  1  1  2  3  4  2  3  4  5  6  7  8  9 10  1  1  1
TYPE ASSIGNMENTS      1  1  2  3  4  2  3  4  5  6  7  8  9 10
EXPONENTS  0.3387000D+02 0.5095000D+01 0.1159000D+01 0.3258000D+00 0.1027000D+00
EXPONENTS  0.1407000D+01 0.1407000D+01 0.1407000D+01 0.3880000D+00 0.3880000D+00
EXPONENTS  0.3880000D+00 0.1057000D+01 0.1057000D+01 0.1057000D+01 0.1057000D+01
EXPONENTS  0.1057000D+01 0.1057000D+01 0.3387000D+02 0.5095000D+01 0.1159000D+01
EXPONENTS  0.3258000D+00 0.1027000D+00 0.1407000D+01 0.1407000D+01 0.1407000D+01
EXPONENTS  0.3880000D+00 0.3880000D+00 0.3880000D+00 0.1057000D+01 0.1057000D+01
EXPONENTS  0.1057000D+01 0.1057000D+01 0.1057000D+01 0.1057000D+01
MO    1     MO 0.0        OCC NO =    1.0000000  ORB. ENERGY =   -0.499811
  0.60719272D-01  0.10950971D+00  0.16147200D+00  0.15480220D+00  0.49629354D-01
 -0.13264173D-15 -0.31263378D-16 -0.41451525D-03 -0.16720046D-16 -0.31815525D-16
 -0.87998302D-04  0.28496829D-03  0.28496829D-03 -0.56993659D-03 -0.56481248D-17
 -0.31992597D-15  0.31333104D-16  0.26181733D-04  0.47219834D-04  0.69625618D-04
  0.18653491D-03 -0.86593039D-04  0.13043546D-15 -0.19898734D-15 -0.13243736D-02
  0.89311674D-17  0.30861467D-16  0.22050137D-03 -0.20956874D-03 -0.20956874D-03
  0.41913748D-03  0.73194826D-17 -0.32136520D-15 -0.87248935D-16
END DATA
 TOTAL ENERGY =       -0.499810549020 THE VIRIAL(-V/T)=   2.00003892
