 TITLE
GAUSSIAN              1 MOL ORBITALS     34 PRIMITIVES        2 NUCLEI
  H    1    (CENTRE  1)   0.00000000  0.00000000  0.00000000  CHARGE =  1.0
  H    2    (CENTRE  2)   0.00000000  0.00000000  6.42506882  CHARGE =  0.0
CENTRE ASSIGNMENTS    1  1  1  1  1  1  1  1  1  1  1  1  1  1  1  1  1  2  2  2
CENTRE ASSIGNMENTS    2  2  2  2  2  2  2  2  2  2  2  2  2  2
TYPE ASSIGNMENTS      1  1  1  1  1  2  3  4  2  3  4  5  6  7  8  9 10  1  1  1
TYPE ASSIGNMENTS      1  1  2  3  4  2  3  4  5  6  7  8  9 10
EXPONENTS  0.3387000D+02 0.5095000D+01 0.1159000D+01 0.3258000D+00 0.1027000D+00
EXPONENTS  0.1407000D+01 0.1407000D+01 0.1407000D+01 0.3880000D+00 0.3880000D+00
EXPONENTS  0.3880000D+00 0.1057000D+01 0.1057000D+01 0.1057000D+01 0.1057000D+01
EXPONENTS  0.1057000D+01 0.1057000D+01 0.3387000D+02 0.5095000D+01 0.1159000D+01
EXPONENTS  0.3258000D+00 0.1027000D+00 0.1407000D+01 0.1407000D+01 0.1407000D+01
EXPONENTS  0.3880000D+00 0.3880000D+00 0.3880000D+00 0.1057000D+01 0.1057000D+01
EXPONENTS  0.1057000D+01 0.1057000D+01 0.1057000D+01 0.1057000D+01
MO    1     MO 0.0        OCC NO =    1.0000000  ORB. ENERGY =   -0.499811
  0.60709914D-01  0.10949283D+00  0.16144711D+00  0.15491593D+00  0.49539276D-01
 -0.12038476D-15  0.82121118D-16  0.65396219D-05  0.43270408D-16 -0.91285568D-17
  0.86631414D-06 -0.57696462D-06 -0.57696462D-06  0.11539292D-05 -0.19795849D-21
  0.73402936D-17  0.49321177D-17  0.30020129D-04  0.54142538D-04  0.79833141D-04
 -0.15610513D-03  0.26871378D-03 -0.12438665D-15 -0.29464224D-15 -0.20104450D-03
  0.28054347D-16  0.26303096D-16  0.13881720D-03  0.74530609D-04  0.74530609D-04
 -0.14906122D-03 -0.87955736D-17  0.34194011D-17 -0.21916626D-16
END DATA
 TOTAL ENERGY =       -0.499811407889 THE VIRIAL(-V/T)=   2.00014374
