 TITLE
GAUSSIAN              1 MOL ORBITALS     34 PRIMITIVES        2 NUCLEI
  H    1    (CENTRE  1)   0.00000000  0.00000000  0.00000000  CHARGE =  1.0
  H    2    (CENTRE  2)   0.00000000  0.00000000  7.93684972  CHARGE =  0.0
CENTRE ASSIGNMENTS    1  1  1  1  1  1  1  1  1  1  1  1  1  1  1  1  1  2  2  2
CENTRE ASSIGNMENTS    2  2  2  2  2  2  2  2  2  2  2  2  2  2
TYPE ASSIGNMENTS      1  1  1  1  1  2  3  4  2  3  4  5  6  7  8  9 10  1  1  1
TYPE ASSIGNMENTS      1  1  2  3  4  2  3  4  5  6  7  8  9 10
EXPONENTS  0.3387000D+02 0.5095000D+01 0.1159000D+01 0.3258000D+00 0.1027000D+00
EXPONENTS  0.1407000D+01 0.1407000D+01 0.1407000D+01 0.3880000D+00 0.3880000D+00
EXPONENTS  0.3880000D+00 0.1057000D+01 0.1057000D+01 0.1057000D+01 0.1057000D+01
EXPONENTS  0.1057000D+01 0.1057000D+01 0.3387000D+02 0.5095000D+01 0.1159000D+01
EXPONENTS  0.3258000D+00 0.1027000D+00 0.1407000D+01 0.1407000D+01 0.1407000D+01
EXPONENTS  0.3880000D+00 0.3880000D+00 0.3880000D+00 0.1057000D+01 0.1057000D+01
EXPONENTS  0.1057000D+01 0.1057000D+01 0.1057000D+01 0.1057000D+01
MO    1     MO 0.0        OCC NO =    1.0000000  ORB. ENERGY =   -0.499811
  0.60714800D-01  0.10950164D+00  0.16146011D+00  0.15488056D+00  0.49566596D-01
  0.54158202D-16  0.10967857D-15 -0.23795688D-05 -0.16960357D-16 -0.16535873D-16
  0.36204073D-05 -0.40565988D-06 -0.40565988D-06  0.81131976D-06 -0.40285193D-19
  0.96377620D-17  0.24404745D-17  0.14343910D-04  0.25869832D-04  0.38145052D-04
 -0.16699693D-03  0.24682781D-03 -0.37634022D-15  0.51684463D-15  0.19626971D-03
  0.14016326D-16 -0.24635117D-16 -0.18412817D-03 -0.15519046D-04 -0.15519046D-04
  0.31038092D-04 -0.47377767D-17  0.16667493D-16 -0.22073918D-16
END DATA
 TOTAL ENERGY =       -0.499811171537 THE VIRIAL(-V/T)=   2.00011401
