 TITLE
GAUSSIAN              1 MOL ORBITALS     34 PRIMITIVES        2 NUCLEI
  H    1    (CENTRE  1)   0.00000000  0.00000000  0.00000000  CHARGE =  1.0
  H    2    (CENTRE  2)   0.00000000  0.00000000 11.90527458  CHARGE =  0.0
CENTRE ASSIGNMENTS    1  1  1  1  1  1  1  1  1  1  1  1  1  1  1  1  1  2  2  2
CENTRE ASSIGNMENTS    2  2  2  2  2  2  2  2  2  2  2  2  2  2
TYPE ASSIGNMENTS      1  1  1  1  1  2  3  4  2  3  4  5  6  7  8  9 10  1  1  1
TYPE ASSIGNMENTS      1  1  2  3  4  2  3  4  5  6  7  8  9 10
EXPONENTS  0.3387000D+02 0.5095000D+01 0.1159000D+01 0.3258000D+00 0.1027000D+00
EXPONENTS  0.1407000D+01 0.1407000D+01 0.1407000D+01 0.3880000D+00 0.3880000D+00
EXPONENTS  0.3880000D+00 0.1057000D+01 0.1057000D+01 0.1057000D+01 0.1057000D+01
EXPONENTS  0.1057000D+01 0.1057000D+01 0.3387000D+02 0.5095000D+01 0.1159000D+01
EXPONENTS  0.3258000D+00 0.1027000D+00 0.1407000D+01 0.1407000D+01 0.1407000D+01
EXPONENTS  0.3880000D+00 0.3880000D+00 0.3880000D+00 0.1057000D+01 0.1057000D+01
EXPONENTS  0.1057000D+01 0.1057000D+01 0.1057000D+01 0.1057000D+01
MO    1     MO 0.0        OCC NO =    1.0000000  ORB. ENERGY =   -0.499810
  0.60717755D-01  0.10950697D+00  0.16146797D+00  0.15487125D+00  0.49575094D-01
  0.55499775D-17 -0.90867934D-16 -0.58425974D-08 -0.37836821D-16  0.50033507D-16
  0.56043673D-08 -0.30172658D-09 -0.30172657D-09  0.60345315D-09 -0.12157496D-18
 -0.39206713D-17 -0.40767515D-18  0.77335555D-05  0.13947786D-04  0.20566002D-04
 -0.57810264D-04  0.37783588D-04 -0.45104596D-16 -0.51006167D-15  0.61459931D-05
 -0.10691371D-16  0.40061817D-16 -0.42846919D-05 -0.25511742D-06 -0.25511742D-06
  0.51023485D-06 -0.96760401D-19 -0.67820026D-18 -0.10992799D-16
END DATA
 TOTAL ENERGY =       -0.499809833198 THE VIRIAL(-V/T)=   2.00004599
