 TITLE
GAUSSIAN              1 MOL ORBITALS     34 PRIMITIVES        2 NUCLEI
  H    1    (CENTRE  1)   0.00000000  0.00000000  0.00000000  CHARGE =  1.0
  H    2    (CENTRE  2)   0.00000000  0.00000000  1.88972612  CHARGE =  0.0
CENTRE ASSIGNMENTS    1  1  1  1  1  1  1  1  1  1  1  1  1  1  1  1  1  2  2  2
CENTRE ASSIGNMENTS    2  2  2  2  2  2  2  2  2  2  2  2  2  2
TYPE ASSIGNMENTS      1  1  1  1  1  2  3  4  2  3  4  5  6  7  8  9 10  1  1  1
TYPE ASSIGNMENTS      1  1  2  3  4  2  3  4  5  6  7  8  9 10
EXPONENTS  0.3387000D+02 0.5095000D+01 0.1159000D+01 0.3258000D+00 0.1027000D+00
EXPONENTS  0.1407000D+01 0.1407000D+01 0.1407000D+01 0.3880000D+00 0.3880000D+00
EXPONENTS  0.3880000D+00 0.1057000D+01 0.1057000D+01 0.1057000D+01 0.1057000D+01
EXPONENTS  0.1057000D+01 0.1057000D+01 0.3387000D+02 0.5095000D+01 0.1159000D+01
EXPONENTS  0.3258000D+00 0.1027000D+00 0.1407000D+01 0.1407000D+01 0.1407000D+01
EXPONENTS  0.3880000D+00 0.3880000D+00 0.3880000D+00 0.1057000D+01 0.1057000D+01
EXPONENTS  0.1057000D+01 0.1057000D+01 0.1057000D+01 0.1057000D+01
MO    1     MO 0.0        OCC NO =    1.0000000  ORB. ENERGY =   -0.499811
  0.60732412D-01  0.10953341D+00  0.16150694D+00  0.15447869D+00  0.49622348D-01
 -0.80096270D-16  0.10382023D-15 -0.41255105D-03 -0.36166928D-16 -0.31357982D-16
 -0.37541523D-03  0.36610324D-03  0.36610324D-03 -0.73220648D-03 -0.13517158D-16
 -0.53287912D-15  0.32990474D-15 -0.50706782D-04 -0.91451770D-04 -0.13484558D-03
  0.56336806D-03 -0.86151426D-04  0.84195117D-16 -0.31841341D-15 -0.11459875D-02
  0.39926964D-16  0.10947994D-17 -0.12895518D-03 -0.49100842D-03 -0.49100842D-03
  0.98201684D-03  0.17293594D-16 -0.57419269D-15  0.27201349D-15
END DATA
 TOTAL ENERGY =       -0.499810883338 THE VIRIAL(-V/T)=   2.00003109
