 TITLE
GAUSSIAN              1 MOL ORBITALS     34 PRIMITIVES        2 NUCLEI
  H    1    (CENTRE  1)   0.00000000  0.00000000  0.00000000  CHARGE =  1.0
  H    2    (CENTRE  2)   0.00000000  0.00000000 10.58246630  CHARGE =  0.0
CENTRE ASSIGNMENTS    1  1  1  1  1  1  1  1  1  1  1  1  1  1  1  1  1  2  2  2
CENTRE ASSIGNMENTS    2  2  2  2  2  2  2  2  2  2  2  2  2  2
TYPE ASSIGNMENTS      1  1  1  1  1  2  3  4  2  3  4  5  6  7  8  9 10  1  1  1
TYPE ASSIGNMENTS      1  1  2  3  4  2  3  4  5  6  7  8  9 10
EXPONENTS  0.3387000D+02 0.5095000D+01 0.1159000D+01 0.3258000D+00 0.1027000D+00
EXPONENTS  0.1407000D+01 0.1407000D+01 0.1407000D+01 0.3880000D+00 0.3880000D+00
EXPONENTS  0.3880000D+00 0.1057000D+01 0.1057000D+01 0.1057000D+01 0.1057000D+01
EXPONENTS  0.1057000D+01 0.1057000D+01 0.3387000D+02 0.5095000D+01 0.1159000D+01
EXPONENTS  0.3258000D+00 0.1027000D+00 0.1407000D+01 0.1407000D+01 0.1407000D+01
EXPONENTS  0.3880000D+00 0.3880000D+00 0.3880000D+00 0.1057000D+01 0.1057000D+01
EXPONENTS  0.1057000D+01 0.1057000D+01 0.1057000D+01 0.1057000D+01
MO    1     MO 0.0        OCC NO =    1.0000000  ORB. ENERGY =   -0.499810
  0.60717682D-01  0.10950684D+00  0.16146777D+00  0.15487092D+00  0.49575131D-01
  0.53704619D-16 -0.11184207D-16 -0.10544880D-06 -0.13135663D-16  0.43057170D-17
  0.10756696D-06 -0.76510010D-08 -0.76510010D-08  0.15302002D-07  0.17918721D-19
 -0.78197290D-17 -0.43388966D-16  0.18486882D-04  0.33341853D-04  0.49162543D-04
 -0.14567510D-03  0.10252632D-03 -0.95555957D-16 -0.44666612D-16  0.36683244D-04
  0.68106038D-17 -0.88041708D-17 -0.26634917D-04 -0.20915544D-05 -0.20915544D-05
  0.41831089D-05 -0.39765077D-17  0.24614094D-15 -0.44043875D-16
END DATA
 TOTAL ENERGY =       -0.499809974507 THE VIRIAL(-V/T)=   2.00005060
