 TITLE
GAUSSIAN              1 MOL ORBITALS     34 PRIMITIVES        2 NUCLEI
  H    1    (CENTRE  1)   0.00000000  0.00000000  0.00000000  CHARGE =  1.0
  H    2    (CENTRE  2)   0.00000000  0.00000000  7.74787711  CHARGE =  0.0
CENTRE ASSIGNMENTS    1  1  1  1  1  1  1  1  1  1  1  1  1  1  1  1  1  2  2  2
CENTRE ASSIGNMENTS    2  2  2  2  2  2  2  2  2  2  2  2  2  2
TYPE ASSIGNMENTS      1  1  1  1  1  2  3  4  2  3  4  5  6  7  8  9 10  1  1  1
TYPE ASSIGNMENTS      1  1  2  3  4  2  3  4  5  6  7  8  9 10
EXPONENTS  0.3387000D+02 0.5095000D+01 0.1159000D+01 0.3258000D+00 0.1027000D+00
EXPONENTS  0.1407000D+01 0.1407000D+01 0.1407000D+01 0.3880000D+00 0.3880000D+00
EXPONENTS  0.3880000D+00 0.1057000D+01 0.1057000D+01 0.1057000D+01 0.1057000D+01
EXPONENTS  0.1057000D+01 0.1057000D+01 0.3387000D+02 0.5095000D+01 0.1159000D+01
EXPONENTS  0.3258000D+00 0.1027000D+00 0.1407000D+01 0.1407000D+01 0.1407000D+01
EXPONENTS  0.3880000D+00 0.3880000D+00 0.3880000D+00 0.1057000D+01 0.1057000D+01
EXPONENTS  0.1057000D+01 0.1057000D+01 0.1057000D+01 0.1057000D+01
MO    1     MO 0.0        OCC NO =    1.0000000  ORB. ENERGY =   -0.499811
  0.60714277D-01  0.10950070D+00  0.16145872D+00  0.15488339D+00  0.49564472D-01
  0.22209765D-15  0.17978487D-15 -0.24505851D-05 -0.31791628D-16  0.51609544D-17
  0.40468078D-05 -0.46711016D-06 -0.46711016D-06  0.93422033D-06 -0.61441385D-20
 -0.21365238D-16 -0.16524074D-16  0.12624991D-04  0.22769691D-04  0.33573896D-04
 -0.14819404D-03  0.24843581D-03 -0.19556405D-15  0.67800685D-16  0.17825499D-03
  0.16100138D-16 -0.36993688D-17 -0.17758158D-03 -0.12637813D-04 -0.12637813D-04
  0.25275626D-04 -0.73041290D-18  0.45510762D-16 -0.32330962D-16
END DATA
 TOTAL ENERGY =       -0.499811230729 THE VIRIAL(-V/T)=   2.00012045
