 TITLE
GAUSSIAN              1 MOL ORBITALS     34 PRIMITIVES        2 NUCLEI
  H    1    (CENTRE  1)   0.00000000  0.00000000  0.00000000  CHARGE =  1.0
  H    2    (CENTRE  2)   0.00000000  0.00000000  7.55890450  CHARGE =  0.0
CENTRE ASSIGNMENTS    1  1  1  1  1  1  1  1  1  1  1  1  1  1  1  1  1  2  2  2
CENTRE ASSIGNMENTS    2  2  2  2  2  2  2  2  2  2  2  2  2  2
TYPE ASSIGNMENTS      1  1  1  1  1  2  3  4  2  3  4  5  6  7  8  9 10  1  1  1
TYPE ASSIGNMENTS      1  1  2  3  4  2  3  4  5  6  7  8  9 10
EXPONENTS  0.3387000D+02 0.5095000D+01 0.1159000D+01 0.3258000D+00 0.1027000D+00
EXPONENTS  0.1407000D+01 0.1407000D+01 0.1407000D+01 0.3880000D+00 0.3880000D+00
EXPONENTS  0.3880000D+00 0.1057000D+01 0.1057000D+01 0.1057000D+01 0.1057000D+01
EXPONENTS  0.1057000D+01 0.1057000D+01 0.3387000D+02 0.5095000D+01 0.1159000D+01
EXPONENTS  0.3258000D+00 0.1027000D+00 0.1407000D+01 0.1407000D+01 0.1407000D+01
EXPONENTS  0.3880000D+00 0.3880000D+00 0.3880000D+00 0.1057000D+01 0.1057000D+01
EXPONENTS  0.1057000D+01 0.1057000D+01 0.1057000D+01 0.1057000D+01
MO    1     MO 0.0        OCC NO =    1.0000000  ORB. ENERGY =   -0.499811
  0.60713707D-01  0.10949967D+00  0.16145720D+00  0.15488674D+00  0.49561999D-01
 -0.19363961D-15 -0.61201961D-16 -0.24038552D-05  0.36483227D-17  0.47707628D-16
  0.44281086D-05 -0.52818169D-06 -0.52818169D-06  0.10563634D-05 -0.26101863D-19
  0.91632312D-17  0.33333133D-17  0.11576800D-04  0.20879236D-04  0.30786422D-04
 -0.13046643D-03  0.24924170D-03  0.30033596D-15 -0.20557638D-15  0.14884411D-03
 -0.38302711D-16  0.42723301D-16 -0.16194873D-03 -0.77131220D-05 -0.77131220D-05
  0.15426244D-04  0.58391487D-18 -0.99423026D-17  0.26630341D-16
END DATA
 TOTAL ENERGY =       -0.499811267799 THE VIRIAL(-V/T)=   2.00012637
