 TITLE
GAUSSIAN              1 MOL ORBITALS     34 PRIMITIVES        2 NUCLEI
  H    1    (CENTRE  1)   0.00000000  0.00000000  0.00000000  CHARGE =  1.0
  H    2    (CENTRE  2)   0.00000000  0.00000000 12.85013765  CHARGE =  0.0
CENTRE ASSIGNMENTS    1  1  1  1  1  1  1  1  1  1  1  1  1  1  1  1  1  2  2  2
CENTRE ASSIGNMENTS    2  2  2  2  2  2  2  2  2  2  2  2  2  2
TYPE ASSIGNMENTS      1  1  1  1  1  2  3  4  2  3  4  5  6  7  8  9 10  1  1  1
TYPE ASSIGNMENTS      1  1  2  3  4  2  3  4  5  6  7  8  9 10
EXPONENTS  0.3387000D+02 0.5095000D+01 0.1159000D+01 0.3258000D+00 0.1027000D+00
EXPONENTS  0.1407000D+01 0.1407000D+01 0.1407000D+01 0.3880000D+00 0.3880000D+00
EXPONENTS  0.3880000D+00 0.1057000D+01 0.1057000D+01 0.1057000D+01 0.1057000D+01
EXPONENTS  0.1057000D+01 0.1057000D+01 0.3387000D+02 0.5095000D+01 0.1159000D+01
EXPONENTS  0.3258000D+00 0.1027000D+00 0.1407000D+01 0.1407000D+01 0.1407000D+01
EXPONENTS  0.3880000D+00 0.3880000D+00 0.3880000D+00 0.1057000D+01 0.1057000D+01
EXPONENTS  0.1057000D+01 0.1057000D+01 0.1057000D+01 0.1057000D+01
MO    1     MO 0.0        OCC NO =    1.0000000  ORB. ENERGY =   -0.499810
  0.60717760D-01  0.10950698D+00  0.16146798D+00  0.15487132D+00  0.49575075D-01
  0.13536114D-15 -0.56753619D-16 -0.48639341D-09 -0.13603049D-15  0.34447275D-16
  0.49656140D-09 -0.18615836D-10 -0.18615831D-10  0.37231667D-10 -0.64187726D-20
  0.19761054D-15 -0.30873754D-16  0.32859135D-05  0.59262804D-05  0.87382970D-05
 -0.24120045D-04  0.15389854D-04 -0.55087107D-15  0.14930767D-15  0.13627604D-05
  0.57963405D-16 -0.28297059D-16 -0.93226932D-06 -0.43386818D-07 -0.43386818D-07
  0.86773635D-07  0.55506709D-17  0.43705353D-16 -0.68211706D-16
END DATA
 TOTAL ENERGY =       -0.499809814953 THE VIRIAL(-V/T)=   2.00004548
