 TITLE
GAUSSIAN              1 MOL ORBITALS     34 PRIMITIVES        2 NUCLEI
  H    1    (CENTRE  1)   0.00000000  0.00000000  0.00000000  CHARGE =  1.0
  H    2    (CENTRE  2)   0.00000000  0.00000000  3.77945225  CHARGE =  0.0
CENTRE ASSIGNMENTS    1  1  1  1  1  1  1  1  1  1  1  1  1  1  1  1  1  2  2  2
CENTRE ASSIGNMENTS    2  2  2  2  2  2  2  2  2  2  2  2  2  2
TYPE ASSIGNMENTS      1  1  1  1  1  2  3  4  2  3  4  5  6  7  8  9 10  1  1  1
TYPE ASSIGNMENTS      1  1  2  3  4  2  3  4  5  6  7  8  9 10
EXPONENTS  0.3387000D+02 0.5095000D+01 0.1159000D+01 0.3258000D+00 0.1027000D+00
EXPONENTS  0.1407000D+01 0.1407000D+01 0.1407000D+01 0.3880000D+00 0.3880000D+00
EXPONENTS  0.3880000D+00 0.1057000D+01 0.1057000D+01 0.1057000D+01 0.1057000D+01
EXPONENTS  0.1057000D+01 0.1057000D+01 0.3387000D+02 0.5095000D+01 0.1159000D+01
EXPONENTS  0.3258000D+00 0.1027000D+00 0.1407000D+01 0.1407000D+01 0.1407000D+01
EXPONENTS  0.3880000D+00 0.3880000D+00 0.3880000D+00 0.1057000D+01 0.1057000D+01
EXPONENTS  0.1057000D+01 0.1057000D+01 0.1057000D+01 0.1057000D+01
MO    1     MO 0.0        OCC NO =    1.0000000  ORB. ENERGY =   -0.499811
  0.60709538D-01  0.10949215D+00  0.16144611D+00  0.15494772D+00  0.49448966D-01
 -0.12060799D-16 -0.30476619D-15  0.10631598D-03  0.56287569D-17  0.59428745D-16
 -0.90292966D-04  0.70304904D-05  0.70304904D-05 -0.14060981D-04  0.17590216D-18
  0.20453388D-16  0.17439739D-17  0.68322956D-04  0.12322326D-03  0.18169263D-03
 -0.47721787D-03  0.29687725D-03  0.20736513D-15 -0.17734352D-15 -0.40906922D-03
 -0.25351738D-16  0.91289583D-17 -0.16819022D-03 -0.62724557D-04 -0.62724557D-04
  0.12544911D-03  0.30568713D-16  0.34930454D-16  0.17883140D-15
END DATA
 TOTAL ENERGY =       -0.499811085847 THE VIRIAL(-V/T)=   2.00012034
