 TITLE
GAUSSIAN              1 MOL ORBITALS     34 PRIMITIVES        2 NUCLEI
  H    1    (CENTRE  1)   0.00000000  0.00000000  0.00000000  CHARGE =  1.0
  H    2    (CENTRE  2)   0.00000000  0.00000000  0.37794522  CHARGE =  0.0
CENTRE ASSIGNMENTS    1  1  1  1  1  1  1  1  1  1  1  1  1  1  1  1  1  2  2  2
CENTRE ASSIGNMENTS    2  2  2  2  2  2  2  2  2  2  2  2  2  2
TYPE ASSIGNMENTS      1  1  1  1  1  2  3  4  2  3  4  5  6  7  8  9 10  1  1  1
TYPE ASSIGNMENTS      1  1  2  3  4  2  3  4  5  6  7  8  9 10
EXPONENTS  0.3387000D+02 0.5095000D+01 0.1159000D+01 0.3258000D+00 0.1027000D+00
EXPONENTS  0.1407000D+01 0.1407000D+01 0.1407000D+01 0.3880000D+00 0.3880000D+00
EXPONENTS  0.3880000D+00 0.1057000D+01 0.1057000D+01 0.1057000D+01 0.1057000D+01
EXPONENTS  0.1057000D+01 0.1057000D+01 0.3387000D+02 0.5095000D+01 0.1159000D+01
EXPONENTS  0.3258000D+00 0.1027000D+00 0.1407000D+01 0.1407000D+01 0.1407000D+01
EXPONENTS  0.3880000D+00 0.3880000D+00 0.3880000D+00 0.1057000D+01 0.1057000D+01
EXPONENTS  0.1057000D+01 0.1057000D+01 0.1057000D+01 0.1057000D+01
MO    1     MO 0.0        OCC NO =    1.0000000  ORB. ENERGY =   -0.499810
  0.60574811D-01  0.10924917D+00  0.16108783D+00  0.15144171D+00  0.49926529D-01
 -0.91361154D-15 -0.28726193D-15  0.16253141D-02  0.10358915D-15 -0.21660415D-15
  0.90232895D-04 -0.24021146D-03 -0.24021146D-03  0.48042292D-03 -0.64909404D-15
 -0.84438247D-16 -0.82156383D-15 -0.80955629D-04 -0.14600681D-03 -0.21528696D-03
  0.34929353D-02 -0.34499053D-03  0.84333678D-15  0.46776904D-15 -0.15164809D-02
 -0.11420946D-15  0.19539298D-15 -0.10859925D-02 -0.29595949D-03 -0.29595949D-03
  0.59191898D-03  0.78847097D-15 -0.52330162D-15  0.53334571D-15
END DATA
 TOTAL ENERGY =       -0.499810029037 THE VIRIAL(-V/T)=   2.00005988
