 TITLE
GAUSSIAN              1 MOL ORBITALS     34 PRIMITIVES        2 NUCLEI
  H    1    (CENTRE  1)   0.00000000  0.00000000  0.00000000  CHARGE =  1.0
  H    2    (CENTRE  2)   0.00000000  0.00000000  5.29123315  CHARGE =  0.0
CENTRE ASSIGNMENTS    1  1  1  1  1  1  1  1  1  1  1  1  1  1  1  1  1  2  2  2
CENTRE ASSIGNMENTS    2  2  2  2  2  2  2  2  2  2  2  2  2  2
TYPE ASSIGNMENTS      1  1  1  1  1  2  3  4  2  3  4  5  6  7  8  9 10  1  1  1
TYPE ASSIGNMENTS      1  1  2  3  4  2  3  4  5  6  7  8  9 10
EXPONENTS  0.3387000D+02 0.5095000D+01 0.1159000D+01 0.3258000D+00 0.1027000D+00
EXPONENTS  0.1407000D+01 0.1407000D+01 0.1407000D+01 0.3880000D+00 0.3880000D+00
EXPONENTS  0.3880000D+00 0.1057000D+01 0.1057000D+01 0.1057000D+01 0.1057000D+01
EXPONENTS  0.1057000D+01 0.1057000D+01 0.3387000D+02 0.5095000D+01 0.1159000D+01
EXPONENTS  0.3258000D+00 0.1027000D+00 0.1407000D+01 0.1407000D+01 0.1407000D+01
EXPONENTS  0.3880000D+00 0.3880000D+00 0.3880000D+00 0.1057000D+01 0.1057000D+01
EXPONENTS  0.1057000D+01 0.1057000D+01 0.1057000D+01 0.1057000D+01
MO    1     MO 0.0        OCC NO =    1.0000000  ORB. ENERGY =   -0.499812
  0.60709960D-01  0.10949291D+00  0.16144724D+00  0.15492834D+00  0.49509611D-01
 -0.40972430D-16 -0.65926888D-17  0.57537783D-04  0.28079715D-16  0.47839718D-16
 -0.40721384D-04  0.48417323D-05  0.48417323D-05 -0.96834646D-05 -0.94547102D-21
 -0.63446421D-17 -0.41694418D-16  0.45400866D-04  0.81882331D-04  0.12073545D-03
 -0.44820953D-03  0.34053657D-03 -0.16101726D-15 -0.24728506D-15 -0.12205249D-03
  0.11327256D-16  0.23856795D-17  0.32671276D-03  0.34196701D-04  0.34196701D-04
 -0.68393403D-04  0.84825406D-16  0.11517463D-16  0.20861981D-16
END DATA
 TOTAL ENERGY =       -0.499811987352 THE VIRIAL(-V/T)=   2.00016208
