 TITLE
GAUSSIAN              1 MOL ORBITALS     34 PRIMITIVES        2 NUCLEI
  H    1    (CENTRE  1)   0.00000000  0.00000000  0.00000000  CHARGE =  1.0
  H    2    (CENTRE  2)   0.00000000  0.00000000  7.36993189  CHARGE =  0.0
CENTRE ASSIGNMENTS    1  1  1  1  1  1  1  1  1  1  1  1  1  1  1  1  1  2  2  2
CENTRE ASSIGNMENTS    2  2  2  2  2  2  2  2  2  2  2  2  2  2
TYPE ASSIGNMENTS      1  1  1  1  1  2  3  4  2  3  4  5  6  7  8  9 10  1  1  1
TYPE ASSIGNMENTS      1  1  2  3  4  2  3  4  5  6  7  8  9 10
EXPONENTS  0.3387000D+02 0.5095000D+01 0.1159000D+01 0.3258000D+00 0.1027000D+00
EXPONENTS  0.1407000D+01 0.1407000D+01 0.1407000D+01 0.3880000D+00 0.3880000D+00
EXPONENTS  0.3880000D+00 0.1057000D+01 0.1057000D+01 0.1057000D+01 0.1057000D+01
EXPONENTS  0.1057000D+01 0.1057000D+01 0.3387000D+02 0.5095000D+01 0.1159000D+01
EXPONENTS  0.3258000D+00 0.1027000D+00 0.1407000D+01 0.1407000D+01 0.1407000D+01
EXPONENTS  0.3880000D+00 0.3880000D+00 0.3880000D+00 0.1057000D+01 0.1057000D+01
EXPONENTS  0.1057000D+01 0.1057000D+01 0.1057000D+01 0.1057000D+01
MO    1     MO 0.0        OCC NO =    1.0000000  ORB. ENERGY =   -0.499811
  0.60713093D-01  0.10949856D+00  0.16145557D+00  0.15489062D+00  0.49559151D-01
 -0.16456245D-15  0.17905980D-15 -0.21852513D-05  0.26382731D-16 -0.35773418D-16
  0.47238349D-05 -0.58662207D-06 -0.58662207D-06  0.11732441D-05 -0.12340859D-20
 -0.12209499D-17  0.75641422D-19  0.11485789D-04  0.20715093D-04  0.30544392D-04
 -0.11581221D-03  0.24976852D-03  0.64709137D-16  0.50312960D-16  0.10759806D-03
  0.11541448D-16 -0.10916809D-16 -0.13600969D-03 -0.33408704D-06 -0.33408704D-06
  0.66817409D-06  0.93121290D-16 -0.34578537D-16 -0.38537186D-16
END DATA
 TOTAL ENERGY =       -0.499811283691 THE VIRIAL(-V/T)=   2.00013152
