 TITLE
GAUSSIAN              1 MOL ORBITALS     34 PRIMITIVES        2 NUCLEI
  H    1    (CENTRE  1)   0.00000000  0.00000000  0.00000000  CHARGE =  1.0
  H    2    (CENTRE  2)   0.00000000  0.00000000  0.75589045  CHARGE =  0.0
CENTRE ASSIGNMENTS    1  1  1  1  1  1  1  1  1  1  1  1  1  1  1  1  1  2  2  2
CENTRE ASSIGNMENTS    2  2  2  2  2  2  2  2  2  2  2  2  2  2
TYPE ASSIGNMENTS      1  1  1  1  1  2  3  4  2  3  4  5  6  7  8  9 10  1  1  1
TYPE ASSIGNMENTS      1  1  2  3  4  2  3  4  5  6  7  8  9 10
EXPONENTS  0.3387000D+02 0.5095000D+01 0.1159000D+01 0.3258000D+00 0.1027000D+00
EXPONENTS  0.1407000D+01 0.1407000D+01 0.1407000D+01 0.3880000D+00 0.3880000D+00
EXPONENTS  0.3880000D+00 0.1057000D+01 0.1057000D+01 0.1057000D+01 0.1057000D+01
EXPONENTS  0.1057000D+01 0.1057000D+01 0.3387000D+02 0.5095000D+01 0.1159000D+01
EXPONENTS  0.3258000D+00 0.1027000D+00 0.1407000D+01 0.1407000D+01 0.1407000D+01
EXPONENTS  0.3880000D+00 0.3880000D+00 0.3880000D+00 0.1057000D+01 0.1057000D+01
EXPONENTS  0.1057000D+01 0.1057000D+01 0.1057000D+01 0.1057000D+01
MO    1     MO 0.0        OCC NO =    1.0000000  ORB. ENERGY =   -0.499810
  0.60834337D-01  0.10971723D+00  0.16177799D+00  0.14910546D+00  0.49981691D-01
 -0.20880484D-15  0.50309490D-15  0.24013457D-03  0.70805198D-16  0.97639411D-16
 -0.19473134D-02  0.25946653D-03  0.25946653D-03 -0.51893306D-03 -0.34716683D-15
 -0.60240684D-15  0.33110648D-15  0.78518719D-04  0.14161174D-03  0.20880643D-03
  0.56347257D-02 -0.39125196D-03  0.43616308D-15 -0.44685759D-15  0.13022711D-02
 -0.64158958D-16 -0.98309190D-16 -0.16530179D-02  0.21338642D-03  0.21338642D-03
 -0.42677284D-03  0.36401386D-15  0.30286384D-15  0.59813632D-15
END DATA
 TOTAL ENERGY =       -0.499810283574 THE VIRIAL(-V/T)=   2.00004218
