 TITLE
GAUSSIAN              1 MOL ORBITALS     17 PRIMITIVES        1 NUCLEI
  H    1    (CENTRE  1)   0.00000000  0.00000000  0.00000000  CHARGE =  1.0
CENTRE ASSIGNMENTS    1  1  1  1  1  1  1  1  1  1  1  1  1  1  1  1  1
TYPE ASSIGNMENTS      1  1  1  1  1  2  3  4  2  3  4  5  6  7  8  9 10
EXPONENTS  0.3387000D+02 0.5095000D+01 0.1159000D+01 0.3258000D+00 0.1027000D+00
EXPONENTS  0.1407000D+01 0.1407000D+01 0.1407000D+01 0.3880000D+00 0.3880000D+00
EXPONENTS  0.3880000D+00 0.1057000D+01 0.1057000D+01 0.1057000D+01 0.1057000D+01
EXPONENTS  0.1057000D+01 0.1057000D+01
MO    1     MO 0.0        OCC NO =    1.0000000  ORB. ENERGY =   -0.499810
  0.60717761D-01  0.10950698D+00  0.16146798D+00  0.15487133D+00  0.49575071D-01
 -0.23603220D-15  0.88734527D-16  0.11897148D-16  0.13121994D-16 -0.12277272D-16
 -0.82871202D-17 -0.10666766D-15 -0.61166674D-16  0.16783434D-15  0.50699639D-16
 -0.12025653D-15  0.11363914D-15
END DATA
 TOTAL ENERGY =       -0.499809811302 THE VIRIAL(-V/T)=   2.00004539
