 TITLE
GAUSSIAN              1 MOL ORBITALS     74 PRIMITIVES        2 NUCLEI
  H    1    (CENTRE  1)   0.00000000  0.00000000  0.00000000  CHARGE =  1.0
  H    2    (CENTRE  2)   0.00000000  0.00000000  1.70075351  CHARGE =  0.0
CENTRE ASSIGNMENTS    1  1  1  1  1  1  1  1  1  1  1  1  1  1  1  1  1  1  1  1
CENTRE ASSIGNMENTS    1  1  1  1  1  1  1  1  1  1  1  1  1  1  1  1  1  2  2  2
CENTRE ASSIGNMENTS    2  2  2  2  2  2  2  2  2  2  2  2  2  2  2  2  2  2  2  2
CENTRE ASSIGNMENTS    2  2  2  2  2  2  2  2  2  2  2  2  2  2
TYPE ASSIGNMENTS      1  1  1  1  1  1  2  3  4  2  3  4  2  3  4  5  6  7  8  9
TYPE ASSIGNMENTS     10  5  6  7  8  9 10 11 12 13 17 14 15 18 19 16 20  1  1  1
TYPE ASSIGNMENTS      1  1  1  2  3  4  2  3  4  2  3  4  5  6  7  8  9 10  5  6
TYPE ASSIGNMENTS      7  8  9 10 11 12 13 17 14 15 18 19 16 20
EXPONENTS  0.8264000D+02 0.1241000D+02 0.2824000D+01 0.7977000D+00 0.2581000D+00
EXPONENTS  0.8989000D-01 0.2292000D+01 0.2292000D+01 0.2292000D+01 0.8380000D+00
EXPONENTS  0.8380000D+00 0.8380000D+00 0.2920000D+00 0.2920000D+00 0.2920000D+00
EXPONENTS  0.2062000D+01 0.2062000D+01 0.2062000D+01 0.2062000D+01 0.2062000D+01
EXPONENTS  0.2062000D+01 0.6620000D+00 0.6620000D+00 0.6620000D+00 0.6620000D+00
EXPONENTS  0.6620000D+00 0.6620000D+00 0.1397000D+01 0.1397000D+01 0.1397000D+01
EXPONENTS  0.1397000D+01 0.1397000D+01 0.1397000D+01 0.1397000D+01 0.1397000D+01
EXPONENTS  0.1397000D+01 0.1397000D+01 0.8264000D+02 0.1241000D+02 0.2824000D+01
EXPONENTS  0.7977000D+00 0.2581000D+00 0.8989000D-01 0.2292000D+01 0.2292000D+01
EXPONENTS  0.2292000D+01 0.8380000D+00 0.8380000D+00 0.8380000D+00 0.2920000D+00
EXPONENTS  0.2920000D+00 0.2920000D+00 0.2062000D+01 0.2062000D+01 0.2062000D+01
EXPONENTS  0.2062000D+01 0.2062000D+01 0.2062000D+01 0.6620000D+00 0.6620000D+00
EXPONENTS  0.6620000D+00 0.6620000D+00 0.6620000D+00 0.6620000D+00 0.1397000D+01
EXPONENTS  0.1397000D+01 0.1397000D+01 0.1397000D+01 0.1397000D+01 0.1397000D+01
EXPONENTS  0.1397000D+01 0.1397000D+01 0.1397000D+01 0.1397000D+01
MO    1     MO 0.0        OCC NO =    1.0000000  ORB. ENERGY =   -0.499946
  0.39220758D-01  0.72365480D-01  0.11744702D+00  0.15393085D+00  0.12797267D+00
  0.34699364D-01 -0.37727569D-16 -0.16336843D-16 -0.92453343D-04 -0.36700739D-15
 -0.67508756D-16 -0.96451236D-03 -0.16184625D-17  0.16647792D-15 -0.17683125D-03
  0.23692097D-03  0.23692097D-03 -0.47384194D-03 -0.51852664D-15  0.31764355D-16
 -0.13623687D-14  0.11244242D-03  0.11244242D-03 -0.22488483D-03  0.17989812D-15
 -0.74908005D-15  0.23116956D-15  0.87843287D-16 -0.88739565D-16  0.28022738D-04
  0.12470257D-14  0.36186262D-15 -0.42034107D-04 -0.15105556D-14 -0.95643929D-16
 -0.42034107D-04 -0.55530579D-16 -0.25264947D-04 -0.46615876D-04 -0.75656177D-04
  0.21919192D-03  0.55507091D-03 -0.79415648D-04  0.12689934D-15 -0.11500110D-15
  0.15787302D-02 -0.28577683D-15  0.10596639D-15 -0.15475840D-02  0.26788012D-15
 -0.82662955D-16 -0.11869558D-03  0.21126270D-03  0.21126270D-03 -0.42252540D-03
 -0.98766734D-15  0.19879249D-14 -0.19108118D-15 -0.25989657D-03 -0.25989657D-03
  0.51979314D-03  0.20920401D-15 -0.16991002D-14  0.16544388D-15 -0.23591074D-15
 -0.22305542D-15 -0.56977066D-03  0.42082396D-15  0.41015937D-16  0.85465599D-03
  0.28690826D-15  0.62815033D-15  0.85465599D-03  0.45073554D-15
END DATA
 TOTAL ENERGY =       -0.499945986065 THE VIRIAL(-V/T)=   1.99999200
