 TITLE
GAUSSIAN              1 MOL ORBITALS     74 PRIMITIVES        2 NUCLEI
  H    1    (CENTRE  1)   0.00000000  0.00000000  0.00000000  CHARGE =  1.0
  H    2    (CENTRE  2)   0.00000000  0.00000000  5.10226054  CHARGE =  0.0
CENTRE ASSIGNMENTS    1  1  1  1  1  1  1  1  1  1  1  1  1  1  1  1  1  1  1  1
CENTRE ASSIGNMENTS    1  1  1  1  1  1  1  1  1  1  1  1  1  1  1  1  1  2  2  2
CENTRE ASSIGNMENTS    2  2  2  2  2  2  2  2  2  2  2  2  2  2  2  2  2  2  2  2
CENTRE ASSIGNMENTS    2  2  2  2  2  2  2  2  2  2  2  2  2  2
TYPE ASSIGNMENTS      1  1  1  1  1  1  2  3  4  2  3  4  2  3  4  5  6  7  8  9
TYPE ASSIGNMENTS     10  5  6  7  8  9 10 11 12 13 17 14 15 18 19 16 20  1  1  1
TYPE ASSIGNMENTS      1  1  1  2  3  4  2  3  4  2  3  4  5  6  7  8  9 10  5  6
TYPE ASSIGNMENTS      7  8  9 10 11 12 13 17 14 15 18 19 16 20
EXPONENTS  0.8264000D+02 0.1241000D+02 0.2824000D+01 0.7977000D+00 0.2581000D+00
EXPONENTS  0.8989000D-01 0.2292000D+01 0.2292000D+01 0.2292000D+01 0.8380000D+00
EXPONENTS  0.8380000D+00 0.8380000D+00 0.2920000D+00 0.2920000D+00 0.2920000D+00
EXPONENTS  0.2062000D+01 0.2062000D+01 0.2062000D+01 0.2062000D+01 0.2062000D+01
EXPONENTS  0.2062000D+01 0.6620000D+00 0.6620000D+00 0.6620000D+00 0.6620000D+00
EXPONENTS  0.6620000D+00 0.6620000D+00 0.1397000D+01 0.1397000D+01 0.1397000D+01
EXPONENTS  0.1397000D+01 0.1397000D+01 0.1397000D+01 0.1397000D+01 0.1397000D+01
EXPONENTS  0.1397000D+01 0.1397000D+01 0.8264000D+02 0.1241000D+02 0.2824000D+01
EXPONENTS  0.7977000D+00 0.2581000D+00 0.8989000D-01 0.2292000D+01 0.2292000D+01
EXPONENTS  0.2292000D+01 0.8380000D+00 0.8380000D+00 0.8380000D+00 0.2920000D+00
EXPONENTS  0.2920000D+00 0.2920000D+00 0.2062000D+01 0.2062000D+01 0.2062000D+01
EXPONENTS  0.2062000D+01 0.2062000D+01 0.2062000D+01 0.6620000D+00 0.6620000D+00
EXPONENTS  0.6620000D+00 0.6620000D+00 0.6620000D+00 0.6620000D+00 0.1397000D+01
EXPONENTS  0.1397000D+01 0.1397000D+01 0.1397000D+01 0.1397000D+01 0.1397000D+01
EXPONENTS  0.1397000D+01 0.1397000D+01 0.1397000D+01 0.1397000D+01
MO    1     MO 0.0        OCC NO =    1.0000000  ORB. ENERGY =   -0.499946
  0.39188813D-01  0.72306539D-01  0.11735136D+00  0.15450014D+00  0.12840992D+00
  0.34598755D-01 -0.62238985D-17  0.69972052D-16 -0.45094189D-04 -0.12450757D-16
 -0.35540420D-16  0.56122284D-04  0.65633029D-17  0.66425061D-18 -0.36371188D-04
 -0.69839593D-05 -0.69839593D-05  0.13967919D-04 -0.58041230D-16 -0.42519562D-16
  0.37611344D-16  0.42087518D-05  0.42087518D-05 -0.84175035D-05  0.10378071D-16
 -0.34380950D-17 -0.22293938D-16  0.24770372D-18 -0.24184518D-18 -0.14729456D-05
  0.25588859D-18 -0.24346607D-18  0.22094184D-05 -0.99899974D-18  0.96900162D-18
  0.22094184D-05 -0.62176397D-19 -0.11318585D-04 -0.20883708D-04 -0.33893635D-04
  0.95186388D-04 -0.29552214D-03  0.18423301D-03  0.31070110D-15 -0.24356459D-15
  0.19241280D-03 -0.83843245D-16  0.57201336D-16 -0.16121713D-03  0.11206970D-16
 -0.37445591D-18  0.70379798D-04  0.14524562D-03  0.14524562D-03 -0.29049124D-03
 -0.34424564D-15 -0.31658514D-15  0.50147335D-15 -0.10427083D-03 -0.10427083D-03
  0.20854167D-03 -0.48883642D-18  0.15498951D-16 -0.20067780D-16 -0.17177028D-17
  0.25240687D-17 -0.11329857D-03  0.36197166D-17 -0.70440201D-17  0.16994785D-03
  0.15333916D-17 -0.52818609D-18  0.16994785D-03  0.11835533D-17
END DATA
 TOTAL ENERGY =       -0.499946148984 THE VIRIAL(-V/T)=   2.00003524
