 TITLE
GAUSSIAN              1 MOL ORBITALS     74 PRIMITIVES        2 NUCLEI
  H    1    (CENTRE  1)   0.00000000  0.00000000  0.00000000  CHARGE =  1.0
  H    2    (CENTRE  2)   0.00000000  0.00000000  6.04712360  CHARGE =  0.0
CENTRE ASSIGNMENTS    1  1  1  1  1  1  1  1  1  1  1  1  1  1  1  1  1  1  1  1
CENTRE ASSIGNMENTS    1  1  1  1  1  1  1  1  1  1  1  1  1  1  1  1  1  2  2  2
CENTRE ASSIGNMENTS    2  2  2  2  2  2  2  2  2  2  2  2  2  2  2  2  2  2  2  2
CENTRE ASSIGNMENTS    2  2  2  2  2  2  2  2  2  2  2  2  2  2
TYPE ASSIGNMENTS      1  1  1  1  1  1  2  3  4  2  3  4  2  3  4  5  6  7  8  9
TYPE ASSIGNMENTS     10  5  6  7  8  9 10 11 12 13 17 14 15 18 19 16 20  1  1  1
TYPE ASSIGNMENTS      1  1  1  2  3  4  2  3  4  2  3  4  5  6  7  8  9 10  5  6
TYPE ASSIGNMENTS      7  8  9 10 11 12 13 17 14 15 18 19 16 20
EXPONENTS  0.8264000D+02 0.1241000D+02 0.2824000D+01 0.7977000D+00 0.2581000D+00
EXPONENTS  0.8989000D-01 0.2292000D+01 0.2292000D+01 0.2292000D+01 0.8380000D+00
EXPONENTS  0.8380000D+00 0.8380000D+00 0.2920000D+00 0.2920000D+00 0.2920000D+00
EXPONENTS  0.2062000D+01 0.2062000D+01 0.2062000D+01 0.2062000D+01 0.2062000D+01
EXPONENTS  0.2062000D+01 0.6620000D+00 0.6620000D+00 0.6620000D+00 0.6620000D+00
EXPONENTS  0.6620000D+00 0.6620000D+00 0.1397000D+01 0.1397000D+01 0.1397000D+01
EXPONENTS  0.1397000D+01 0.1397000D+01 0.1397000D+01 0.1397000D+01 0.1397000D+01
EXPONENTS  0.1397000D+01 0.1397000D+01 0.8264000D+02 0.1241000D+02 0.2824000D+01
EXPONENTS  0.7977000D+00 0.2581000D+00 0.8989000D-01 0.2292000D+01 0.2292000D+01
EXPONENTS  0.2292000D+01 0.8380000D+00 0.8380000D+00 0.8380000D+00 0.2920000D+00
EXPONENTS  0.2920000D+00 0.2920000D+00 0.2062000D+01 0.2062000D+01 0.2062000D+01
EXPONENTS  0.2062000D+01 0.2062000D+01 0.2062000D+01 0.6620000D+00 0.6620000D+00
EXPONENTS  0.6620000D+00 0.6620000D+00 0.6620000D+00 0.6620000D+00 0.1397000D+01
EXPONENTS  0.1397000D+01 0.1397000D+01 0.1397000D+01 0.1397000D+01 0.1397000D+01
EXPONENTS  0.1397000D+01 0.1397000D+01 0.1397000D+01 0.1397000D+01
MO    1     MO 0.0        OCC NO =    1.0000000  ORB. ENERGY =   -0.499946
  0.39187943D-01  0.72304934D-01  0.11734875D+00  0.15450850D+00  0.12839608D+00
  0.34617668D-01  0.69430982D-16  0.22509895D-16 -0.35952398D-04 -0.84749257D-16
 -0.31530970D-16  0.42840660D-04  0.30733997D-16  0.79241592D-17 -0.23079254D-04
 -0.65224461D-05 -0.65224461D-05  0.13044892D-04  0.13225930D-15  0.62287770D-16
  0.15900617D-16  0.32556131D-05  0.32556131D-05 -0.65112262D-05 -0.56984366D-16
 -0.31897182D-17  0.24869638D-17 -0.10910027D-19  0.17863584D-19 -0.13604312D-05
 -0.30854999D-20  0.12679715D-19  0.20406468D-05  0.35815580D-19 -0.66270467D-19
  0.20406468D-05  0.16268374D-18 -0.10670902D-04 -0.19688680D-04 -0.31954141D-04
  0.14518692D-03 -0.25367287D-03  0.17615292D-03  0.16860385D-15  0.74284561D-15
  0.12707967D-04 -0.68337811D-16 -0.22972895D-15 -0.39491142D-04  0.13913134D-16
  0.34312488D-16  0.13239736D-03 -0.95342553D-05 -0.95342553D-05  0.19068511D-04
 -0.99209363D-16 -0.31290076D-15  0.32454482D-16  0.18049037D-04  0.18049037D-04
 -0.36098075D-04 -0.40417590D-16  0.12678165D-16 -0.30332786D-17 -0.22749910D-18
  0.71580930D-19 -0.31748751D-04 -0.30349766D-18  0.32456121D-19  0.47623127D-04
  0.98599496D-18 -0.24719891D-18  0.47623127D-04  0.43246677D-18
END DATA
 TOTAL ENERGY =       -0.499946152152 THE VIRIAL(-V/T)=   2.00003605
