 TITLE
GAUSSIAN              1 MOL ORBITALS     74 PRIMITIVES        2 NUCLEI
  H    1    (CENTRE  1)   0.00000000  0.00000000  0.00000000  CHARGE =  1.0
  H    2    (CENTRE  2)   0.00000000  0.00000000  2.26767135  CHARGE =  0.0
CENTRE ASSIGNMENTS    1  1  1  1  1  1  1  1  1  1  1  1  1  1  1  1  1  1  1  1
CENTRE ASSIGNMENTS    1  1  1  1  1  1  1  1  1  1  1  1  1  1  1  1  1  2  2  2
CENTRE ASSIGNMENTS    2  2  2  2  2  2  2  2  2  2  2  2  2  2  2  2  2  2  2  2
CENTRE ASSIGNMENTS    2  2  2  2  2  2  2  2  2  2  2  2  2  2
TYPE ASSIGNMENTS      1  1  1  1  1  1  2  3  4  2  3  4  2  3  4  5  6  7  8  9
TYPE ASSIGNMENTS     10  5  6  7  8  9 10 11 12 13 17 14 15 18 19 16 20  1  1  1
TYPE ASSIGNMENTS      1  1  1  2  3  4  2  3  4  2  3  4  5  6  7  8  9 10  5  6
TYPE ASSIGNMENTS      7  8  9 10 11 12 13 17 14 15 18 19 16 20
EXPONENTS  0.8264000D+02 0.1241000D+02 0.2824000D+01 0.7977000D+00 0.2581000D+00
EXPONENTS  0.8989000D-01 0.2292000D+01 0.2292000D+01 0.2292000D+01 0.8380000D+00
EXPONENTS  0.8380000D+00 0.8380000D+00 0.2920000D+00 0.2920000D+00 0.2920000D+00
EXPONENTS  0.2062000D+01 0.2062000D+01 0.2062000D+01 0.2062000D+01 0.2062000D+01
EXPONENTS  0.2062000D+01 0.6620000D+00 0.6620000D+00 0.6620000D+00 0.6620000D+00
EXPONENTS  0.6620000D+00 0.6620000D+00 0.1397000D+01 0.1397000D+01 0.1397000D+01
EXPONENTS  0.1397000D+01 0.1397000D+01 0.1397000D+01 0.1397000D+01 0.1397000D+01
EXPONENTS  0.1397000D+01 0.1397000D+01 0.8264000D+02 0.1241000D+02 0.2824000D+01
EXPONENTS  0.7977000D+00 0.2581000D+00 0.8989000D-01 0.2292000D+01 0.2292000D+01
EXPONENTS  0.2292000D+01 0.8380000D+00 0.8380000D+00 0.8380000D+00 0.2920000D+00
EXPONENTS  0.2920000D+00 0.2920000D+00 0.2062000D+01 0.2062000D+01 0.2062000D+01
EXPONENTS  0.2062000D+01 0.2062000D+01 0.2062000D+01 0.6620000D+00 0.6620000D+00
EXPONENTS  0.6620000D+00 0.6620000D+00 0.6620000D+00 0.6620000D+00 0.1397000D+01
EXPONENTS  0.1397000D+01 0.1397000D+01 0.1397000D+01 0.1397000D+01 0.1397000D+01
EXPONENTS  0.1397000D+01 0.1397000D+01 0.1397000D+01 0.1397000D+01
MO    1     MO 0.0        OCC NO =    1.0000000  ORB. ENERGY =   -0.499946
  0.39183187D-01  0.72296157D-01  0.11733451D+00  0.15459619D+00  0.12804909D+00
  0.34646304D-01 -0.74176102D-16  0.11168759D-15  0.21288872D-04  0.53522561D-16
 -0.74747040D-16 -0.49443421D-04 -0.82300876D-17  0.65882370D-17 -0.25533259D-03
 -0.11611752D-03 -0.11611752D-03  0.23223505D-03  0.11242202D-15  0.13033555D-16
 -0.68871245D-16  0.87435248D-04  0.87435248D-04 -0.17487050D-03 -0.19271491D-16
  0.27014042D-16 -0.74613913D-16 -0.41783199D-16  0.79320668D-16  0.35186411D-04
 -0.17677903D-16  0.81673729D-16 -0.52779616D-04  0.14302750D-15 -0.31963573D-15
 -0.52779616D-04 -0.31222890D-16  0.24534674D-04  0.45268464D-04  0.73469367D-04
 -0.20866997D-03  0.39089620D-03 -0.12700685D-04 -0.27169361D-16 -0.13950367D-15
 -0.56837338D-03  0.24488702D-16 -0.19875906D-16  0.27551016D-04 -0.16054958D-16
  0.25391154D-16 -0.23206346D-03  0.23835645D-03  0.23835645D-03 -0.47671291D-03
 -0.54826525D-16  0.40240441D-16  0.21606733D-15 -0.15689162D-03 -0.15689162D-03
  0.31378324D-03  0.85335891D-17  0.24341182D-16 -0.64792207D-16  0.32818102D-16
 -0.90837046D-16  0.45478637D-03  0.32887260D-16 -0.90853363D-16 -0.68217955D-03
 -0.13134157D-15  0.36336450D-15 -0.68217955D-03 -0.67076931D-16
END DATA
 TOTAL ENERGY =       -0.499945961644 THE VIRIAL(-V/T)=   1.99999709
