 TITLE
GAUSSIAN              1 MOL ORBITALS     74 PRIMITIVES        2 NUCLEI
  H    1    (CENTRE  1)   0.00000000  0.00000000  0.00000000  CHARGE =  1.0
  H    2    (CENTRE  2)   0.00000000  0.00000000  7.18095927  CHARGE =  0.0
CENTRE ASSIGNMENTS    1  1  1  1  1  1  1  1  1  1  1  1  1  1  1  1  1  1  1  1
CENTRE ASSIGNMENTS    1  1  1  1  1  1  1  1  1  1  1  1  1  1  1  1  1  2  2  2
CENTRE ASSIGNMENTS    2  2  2  2  2  2  2  2  2  2  2  2  2  2  2  2  2  2  2  2
CENTRE ASSIGNMENTS    2  2  2  2  2  2  2  2  2  2  2  2  2  2
TYPE ASSIGNMENTS      1  1  1  1  1  1  2  3  4  2  3  4  2  3  4  5  6  7  8  9
TYPE ASSIGNMENTS     10  5  6  7  8  9 10 11 12 13 17 14 15 18 19 16 20  1  1  1
TYPE ASSIGNMENTS      1  1  1  2  3  4  2  3  4  2  3  4  5  6  7  8  9 10  5  6
TYPE ASSIGNMENTS      7  8  9 10 11 12 13 17 14 15 18 19 16 20
EXPONENTS  0.8264000D+02 0.1241000D+02 0.2824000D+01 0.7977000D+00 0.2581000D+00
EXPONENTS  0.8989000D-01 0.2292000D+01 0.2292000D+01 0.2292000D+01 0.8380000D+00
EXPONENTS  0.8380000D+00 0.8380000D+00 0.2920000D+00 0.2920000D+00 0.2920000D+00
EXPONENTS  0.2062000D+01 0.2062000D+01 0.2062000D+01 0.2062000D+01 0.2062000D+01
EXPONENTS  0.2062000D+01 0.6620000D+00 0.6620000D+00 0.6620000D+00 0.6620000D+00
EXPONENTS  0.6620000D+00 0.6620000D+00 0.1397000D+01 0.1397000D+01 0.1397000D+01
EXPONENTS  0.1397000D+01 0.1397000D+01 0.1397000D+01 0.1397000D+01 0.1397000D+01
EXPONENTS  0.1397000D+01 0.1397000D+01 0.8264000D+02 0.1241000D+02 0.2824000D+01
EXPONENTS  0.7977000D+00 0.2581000D+00 0.8989000D-01 0.2292000D+01 0.2292000D+01
EXPONENTS  0.2292000D+01 0.8380000D+00 0.8380000D+00 0.8380000D+00 0.2920000D+00
EXPONENTS  0.2920000D+00 0.2920000D+00 0.2062000D+01 0.2062000D+01 0.2062000D+01
EXPONENTS  0.2062000D+01 0.2062000D+01 0.2062000D+01 0.6620000D+00 0.6620000D+00
EXPONENTS  0.6620000D+00 0.6620000D+00 0.6620000D+00 0.6620000D+00 0.1397000D+01
EXPONENTS  0.1397000D+01 0.1397000D+01 0.1397000D+01 0.1397000D+01 0.1397000D+01
EXPONENTS  0.1397000D+01 0.1397000D+01 0.1397000D+01 0.1397000D+01
MO    1     MO 0.0        OCC NO =    1.0000000  ORB. ENERGY =   -0.499946
  0.39188314D-01  0.72305618D-01  0.11734986D+00  0.15450737D+00  0.12838972D+00
  0.34630090D-01 -0.14316759D-16  0.12317963D-16 -0.71196662D-05  0.15862515D-16
  0.13128622D-16  0.85123239D-05 -0.64430062D-17 -0.59480914D-17 -0.26542848D-05
 -0.40132479D-06 -0.40132479D-06  0.80264957D-06  0.34564676D-16 -0.96306504D-16
  0.82750227D-17  0.33756995D-07  0.33756995D-07 -0.67513989D-07 -0.26815425D-16
 -0.56354466D-17  0.10580469D-16  0.60185333D-20  0.11946120D-19 -0.24640860D-08
  0.63430921D-20  0.12032239D-19  0.36961290D-08 -0.24398692D-19 -0.47870600D-19
  0.36961290D-08  0.83257547D-19 -0.11358911D-04 -0.20958111D-04 -0.34014389D-04
  0.11773485D-03 -0.12409828D-03  0.13805959D-03 -0.41983375D-15 -0.57495262D-16
  0.10400802D-03  0.13686017D-15  0.79618620D-17 -0.12936040D-03 -0.18017772D-16
  0.15442814D-18  0.65753956D-04 -0.84566105D-04 -0.84566105D-04  0.16913221D-03
 -0.86565887D-15  0.14602658D-15 -0.53907923D-15  0.45703745D-04  0.45703745D-04
 -0.91407490D-04  0.61712916D-16 -0.36616171D-17  0.34727219D-16 -0.34477075D-19
 -0.25274541D-19  0.26423674D-04 -0.36084326D-19 -0.18255248D-20 -0.39635511D-04
  0.13951555D-18  0.77649148D-19 -0.39635511D-04  0.63109986D-18
END DATA
 TOTAL ENERGY =       -0.499946006084 THE VIRIAL(-V/T)=   2.00002922
