 TITLE
GAUSSIAN              1 MOL ORBITALS     74 PRIMITIVES        2 NUCLEI
  H    1    (CENTRE  1)   0.00000000  0.00000000  0.00000000  CHARGE =  1.0
  H    2    (CENTRE  2)   0.00000000  0.00000000  6.99198666  CHARGE =  0.0
CENTRE ASSIGNMENTS    1  1  1  1  1  1  1  1  1  1  1  1  1  1  1  1  1  1  1  1
CENTRE ASSIGNMENTS    1  1  1  1  1  1  1  1  1  1  1  1  1  1  1  1  1  2  2  2
CENTRE ASSIGNMENTS    2  2  2  2  2  2  2  2  2  2  2  2  2  2  2  2  2  2  2  2
CENTRE ASSIGNMENTS    2  2  2  2  2  2  2  2  2  2  2  2  2  2
TYPE ASSIGNMENTS      1  1  1  1  1  1  2  3  4  2  3  4  2  3  4  5  6  7  8  9
TYPE ASSIGNMENTS     10  5  6  7  8  9 10 11 12 13 17 14 15 18 19 16 20  1  1  1
TYPE ASSIGNMENTS      1  1  1  2  3  4  2  3  4  2  3  4  5  6  7  8  9 10  5  6
TYPE ASSIGNMENTS      7  8  9 10 11 12 13 17 14 15 18 19 16 20
EXPONENTS  0.8264000D+02 0.1241000D+02 0.2824000D+01 0.7977000D+00 0.2581000D+00
EXPONENTS  0.8989000D-01 0.2292000D+01 0.2292000D+01 0.2292000D+01 0.8380000D+00
EXPONENTS  0.8380000D+00 0.8380000D+00 0.2920000D+00 0.2920000D+00 0.2920000D+00
EXPONENTS  0.2062000D+01 0.2062000D+01 0.2062000D+01 0.2062000D+01 0.2062000D+01
EXPONENTS  0.2062000D+01 0.6620000D+00 0.6620000D+00 0.6620000D+00 0.6620000D+00
EXPONENTS  0.6620000D+00 0.6620000D+00 0.1397000D+01 0.1397000D+01 0.1397000D+01
EXPONENTS  0.1397000D+01 0.1397000D+01 0.1397000D+01 0.1397000D+01 0.1397000D+01
EXPONENTS  0.1397000D+01 0.1397000D+01 0.8264000D+02 0.1241000D+02 0.2824000D+01
EXPONENTS  0.7977000D+00 0.2581000D+00 0.8989000D-01 0.2292000D+01 0.2292000D+01
EXPONENTS  0.2292000D+01 0.8380000D+00 0.8380000D+00 0.8380000D+00 0.2920000D+00
EXPONENTS  0.2920000D+00 0.2920000D+00 0.2062000D+01 0.2062000D+01 0.2062000D+01
EXPONENTS  0.2062000D+01 0.2062000D+01 0.2062000D+01 0.6620000D+00 0.6620000D+00
EXPONENTS  0.6620000D+00 0.6620000D+00 0.6620000D+00 0.6620000D+00 0.1397000D+01
EXPONENTS  0.1397000D+01 0.1397000D+01 0.1397000D+01 0.1397000D+01 0.1397000D+01
EXPONENTS  0.1397000D+01 0.1397000D+01 0.1397000D+01 0.1397000D+01
MO    1     MO 0.0        OCC NO =    1.0000000  ORB. ENERGY =   -0.499946
  0.39188352D-01  0.72305687D-01  0.11734997D+00  0.15450659D+00  0.12839182D+00
  0.34628123D-01 -0.74588089D-17 -0.24148908D-16 -0.10992314D-04  0.51999789D-17
  0.39705790D-16  0.12945274D-04  0.82539583D-17 -0.46166061D-17 -0.49439801D-05
 -0.90615093D-06 -0.90615093D-06  0.18123019D-05 -0.36446927D-16 -0.12434740D-15
 -0.37368360D-15  0.27318829D-06  0.27318829D-06 -0.54637659D-06  0.26230002D-17
  0.23823268D-16  0.49491301D-16  0.17202297D-19 -0.64206081D-20 -0.86307641D-07
  0.16098205D-19 -0.75963152D-20  0.12946146D-06 -0.67705096D-19  0.26858140D-19
  0.12946146D-06  0.36460694D-20 -0.12649611D-04 -0.23339559D-04 -0.37879408D-04
  0.13558754D-03 -0.14609687D-03  0.14434215D-03 -0.77501258D-17 -0.23523948D-16
  0.10914529D-03  0.14182420D-16  0.11931675D-16 -0.14387957D-03 -0.27989668D-17
 -0.35997313D-17  0.91035205D-04 -0.94488338D-04 -0.94488338D-04  0.18897668D-03
 -0.64554339D-15  0.46961920D-16 -0.97160543D-15  0.52839637D-04  0.52839637D-04
 -0.10567927D-03  0.30073106D-16  0.57790352D-17  0.55496599D-16 -0.34165896D-19
  0.10054410D-19  0.27584049D-04  0.41575952D-18  0.24635581D-19 -0.41376073D-04
 -0.31326183D-18 -0.54798811D-19 -0.41376073D-04 -0.18895229D-18
END DATA
 TOTAL ENERGY =       -0.499946045518 THE VIRIAL(-V/T)=   2.00002977
