 TITLE
GAUSSIAN              1 MOL ORBITALS     74 PRIMITIVES        2 NUCLEI
  H    1    (CENTRE  1)   0.00000000  0.00000000  0.00000000  CHARGE =  1.0
  H    2    (CENTRE  2)   0.00000000  0.00000000 11.71630197  CHARGE =  0.0
CENTRE ASSIGNMENTS    1  1  1  1  1  1  1  1  1  1  1  1  1  1  1  1  1  1  1  1
CENTRE ASSIGNMENTS    1  1  1  1  1  1  1  1  1  1  1  1  1  1  1  1  1  2  2  2
CENTRE ASSIGNMENTS    2  2  2  2  2  2  2  2  2  2  2  2  2  2  2  2  2  2  2  2
CENTRE ASSIGNMENTS    2  2  2  2  2  2  2  2  2  2  2  2  2  2
TYPE ASSIGNMENTS      1  1  1  1  1  1  2  3  4  2  3  4  2  3  4  5  6  7  8  9
TYPE ASSIGNMENTS     10  5  6  7  8  9 10 11 12 13 17 14 15 18 19 16 20  1  1  1
TYPE ASSIGNMENTS      1  1  1  2  3  4  2  3  4  2  3  4  5  6  7  8  9 10  5  6
TYPE ASSIGNMENTS      7  8  9 10 11 12 13 17 14 15 18 19 16 20
EXPONENTS  0.8264000D+02 0.1241000D+02 0.2824000D+01 0.7977000D+00 0.2581000D+00
EXPONENTS  0.8989000D-01 0.2292000D+01 0.2292000D+01 0.2292000D+01 0.8380000D+00
EXPONENTS  0.8380000D+00 0.8380000D+00 0.2920000D+00 0.2920000D+00 0.2920000D+00
EXPONENTS  0.2062000D+01 0.2062000D+01 0.2062000D+01 0.2062000D+01 0.2062000D+01
EXPONENTS  0.2062000D+01 0.6620000D+00 0.6620000D+00 0.6620000D+00 0.6620000D+00
EXPONENTS  0.6620000D+00 0.6620000D+00 0.1397000D+01 0.1397000D+01 0.1397000D+01
EXPONENTS  0.1397000D+01 0.1397000D+01 0.1397000D+01 0.1397000D+01 0.1397000D+01
EXPONENTS  0.1397000D+01 0.1397000D+01 0.8264000D+02 0.1241000D+02 0.2824000D+01
EXPONENTS  0.7977000D+00 0.2581000D+00 0.8989000D-01 0.2292000D+01 0.2292000D+01
EXPONENTS  0.2292000D+01 0.8380000D+00 0.8380000D+00 0.8380000D+00 0.2920000D+00
EXPONENTS  0.2920000D+00 0.2920000D+00 0.2062000D+01 0.2062000D+01 0.2062000D+01
EXPONENTS  0.2062000D+01 0.2062000D+01 0.2062000D+01 0.6620000D+00 0.6620000D+00
EXPONENTS  0.6620000D+00 0.6620000D+00 0.6620000D+00 0.6620000D+00 0.1397000D+01
EXPONENTS  0.1397000D+01 0.1397000D+01 0.1397000D+01 0.1397000D+01 0.1397000D+01
EXPONENTS  0.1397000D+01 0.1397000D+01 0.1397000D+01 0.1397000D+01
MO    1     MO 0.0        OCC NO =    1.0000000  ORB. ENERGY =   -0.499946
  0.39186791D-01  0.72302807D-01  0.11734530D+00  0.15452885D+00  0.12836002D+00
  0.34648117D-01 -0.56692786D-16  0.11136056D-16  0.66146913D-07  0.38702799D-16
 -0.22887642D-16 -0.69750978D-07 -0.15097678D-16 -0.86425212D-18  0.44161739D-07
  0.61728646D-08  0.61728646D-08 -0.12345729D-07  0.25537492D-16 -0.18958545D-16
  0.63236574D-17 -0.34942320D-08 -0.34942320D-08  0.69884640D-08 -0.48175383D-17
  0.70220007D-17 -0.23423711D-17 -0.38542770D-22  0.17144279D-22  0.11176079D-08
 -0.39052367D-22  0.19616999D-22 -0.16764119D-08  0.15468068D-21 -0.71049837D-22
 -0.16764119D-08  0.26744742D-23 -0.59945013D-05 -0.11060341D-04 -0.17950604D-04
  0.65135169D-04 -0.93467872D-04  0.52651714D-04  0.25722284D-15  0.41904018D-16
 -0.28458722D-04 -0.60114745D-16 -0.30762245D-16  0.31386125D-04  0.33078652D-17
  0.76983492D-17 -0.15663793D-04  0.27158384D-05  0.27158384D-05 -0.54316767D-05
  0.13662830D-15  0.16000414D-16  0.13514998D-15 -0.13550460D-05 -0.13550460D-05
  0.27100920D-05 -0.16183926D-16 -0.50205983D-16  0.17410411D-16  0.42358277D-20
 -0.33223092D-19 -0.41830146D-06  0.39609622D-19  0.10290350D-19  0.62745219D-06
 -0.52317105D-19  0.89378925D-19  0.62745219D-06  0.12076915D-19
END DATA
 TOTAL ENERGY =       -0.499945607744 THE VIRIAL(-V/T)=   2.00000301
