 TITLE
GAUSSIAN              1 MOL ORBITALS     74 PRIMITIVES        2 NUCLEI
  H    1    (CENTRE  1)   0.00000000  0.00000000  0.00000000  CHARGE =  1.0
  H    2    (CENTRE  2)   0.00000000  0.00000000  3.21253441  CHARGE =  0.0
CENTRE ASSIGNMENTS    1  1  1  1  1  1  1  1  1  1  1  1  1  1  1  1  1  1  1  1
CENTRE ASSIGNMENTS    1  1  1  1  1  1  1  1  1  1  1  1  1  1  1  1  1  2  2  2
CENTRE ASSIGNMENTS    2  2  2  2  2  2  2  2  2  2  2  2  2  2  2  2  2  2  2  2
CENTRE ASSIGNMENTS    2  2  2  2  2  2  2  2  2  2  2  2  2  2
TYPE ASSIGNMENTS      1  1  1  1  1  1  2  3  4  2  3  4  2  3  4  5  6  7  8  9
TYPE ASSIGNMENTS     10  5  6  7  8  9 10 11 12 13 17 14 15 18 19 16 20  1  1  1
TYPE ASSIGNMENTS      1  1  1  2  3  4  2  3  4  2  3  4  5  6  7  8  9 10  5  6
TYPE ASSIGNMENTS      7  8  9 10 11 12 13 17 14 15 18 19 16 20
EXPONENTS  0.8264000D+02 0.1241000D+02 0.2824000D+01 0.7977000D+00 0.2581000D+00
EXPONENTS  0.8989000D-01 0.2292000D+01 0.2292000D+01 0.2292000D+01 0.8380000D+00
EXPONENTS  0.8380000D+00 0.8380000D+00 0.2920000D+00 0.2920000D+00 0.2920000D+00
EXPONENTS  0.2062000D+01 0.2062000D+01 0.2062000D+01 0.2062000D+01 0.2062000D+01
EXPONENTS  0.2062000D+01 0.6620000D+00 0.6620000D+00 0.6620000D+00 0.6620000D+00
EXPONENTS  0.6620000D+00 0.6620000D+00 0.1397000D+01 0.1397000D+01 0.1397000D+01
EXPONENTS  0.1397000D+01 0.1397000D+01 0.1397000D+01 0.1397000D+01 0.1397000D+01
EXPONENTS  0.1397000D+01 0.1397000D+01 0.8264000D+02 0.1241000D+02 0.2824000D+01
EXPONENTS  0.7977000D+00 0.2581000D+00 0.8989000D-01 0.2292000D+01 0.2292000D+01
EXPONENTS  0.2292000D+01 0.8380000D+00 0.8380000D+00 0.8380000D+00 0.2920000D+00
EXPONENTS  0.2920000D+00 0.2920000D+00 0.2062000D+01 0.2062000D+01 0.2062000D+01
EXPONENTS  0.2062000D+01 0.2062000D+01 0.2062000D+01 0.6620000D+00 0.6620000D+00
EXPONENTS  0.6620000D+00 0.6620000D+00 0.6620000D+00 0.6620000D+00 0.1397000D+01
EXPONENTS  0.1397000D+01 0.1397000D+01 0.1397000D+01 0.1397000D+01 0.1397000D+01
EXPONENTS  0.1397000D+01 0.1397000D+01 0.1397000D+01 0.1397000D+01
MO    1     MO 0.0        OCC NO =    1.0000000  ORB. ENERGY =   -0.499946
  0.39186896D-01  0.72303000D-01  0.11734561D+00  0.15454089D+00  0.12834495D+00
  0.34582300D-01  0.68657620D-17 -0.67906303D-16 -0.33143660D-04  0.56062271D-17
 -0.25313514D-16  0.64000462D-04  0.18969764D-17 -0.57061552D-16 -0.98053627D-04
 -0.33933621D-04 -0.33933621D-04  0.67867242D-04 -0.29376223D-15  0.25558777D-15
  0.56809570D-15  0.25625414D-04  0.25625414D-04 -0.51250828D-04  0.22678839D-16
 -0.43208183D-16 -0.57687005D-16  0.10904420D-16  0.21311765D-16 -0.15650851D-04
  0.10904439D-16  0.21311798D-16  0.23476277D-04 -0.43617699D-16 -0.85247093D-16
  0.23476277D-04  0.20237419D-16 -0.13084551D-04 -0.24142058D-04 -0.39181840D-04
  0.11827313D-03 -0.11207988D-03  0.10514840D-03  0.17064111D-15 -0.23695029D-15
 -0.26343346D-04 -0.75424384D-16  0.54399968D-16  0.45220343D-03  0.16491882D-16
 -0.39528479D-16 -0.22204873D-03  0.36590211D-04  0.36590211D-04 -0.73180422D-04
  0.52924917D-15  0.43746195D-15  0.64924407D-15  0.22539449D-04  0.22539449D-04
 -0.45078899D-04 -0.36353716D-16 -0.49413879D-16 -0.38317245D-16 -0.13315390D-16
 -0.14327990D-16 -0.43396567D-03 -0.13315385D-16 -0.14327994D-16  0.65094850D-03
  0.53261553D-16  0.57311964D-16  0.65094850D-03  0.14114836D-16
END DATA
 TOTAL ENERGY =       -0.499945966506 THE VIRIAL(-V/T)=   2.00000839
