 TITLE
GAUSSIAN              1 MOL ORBITALS     74 PRIMITIVES        2 NUCLEI
  H    1    (CENTRE  1)   0.00000000  0.00000000  0.00000000  CHARGE =  1.0
  H    2    (CENTRE  2)   0.00000000  0.00000000 12.66116503  CHARGE =  0.0
CENTRE ASSIGNMENTS    1  1  1  1  1  1  1  1  1  1  1  1  1  1  1  1  1  1  1  1
CENTRE ASSIGNMENTS    1  1  1  1  1  1  1  1  1  1  1  1  1  1  1  1  1  2  2  2
CENTRE ASSIGNMENTS    2  2  2  2  2  2  2  2  2  2  2  2  2  2  2  2  2  2  2  2
CENTRE ASSIGNMENTS    2  2  2  2  2  2  2  2  2  2  2  2  2  2
TYPE ASSIGNMENTS      1  1  1  1  1  1  2  3  4  2  3  4  2  3  4  5  6  7  8  9
TYPE ASSIGNMENTS     10  5  6  7  8  9 10 11 12 13 17 14 15 18 19 16 20  1  1  1
TYPE ASSIGNMENTS      1  1  1  2  3  4  2  3  4  2  3  4  5  6  7  8  9 10  5  6
TYPE ASSIGNMENTS      7  8  9 10 11 12 13 17 14 15 18 19 16 20
EXPONENTS  0.8264000D+02 0.1241000D+02 0.2824000D+01 0.7977000D+00 0.2581000D+00
EXPONENTS  0.8989000D-01 0.2292000D+01 0.2292000D+01 0.2292000D+01 0.8380000D+00
EXPONENTS  0.8380000D+00 0.8380000D+00 0.2920000D+00 0.2920000D+00 0.2920000D+00
EXPONENTS  0.2062000D+01 0.2062000D+01 0.2062000D+01 0.2062000D+01 0.2062000D+01
EXPONENTS  0.2062000D+01 0.6620000D+00 0.6620000D+00 0.6620000D+00 0.6620000D+00
EXPONENTS  0.6620000D+00 0.6620000D+00 0.1397000D+01 0.1397000D+01 0.1397000D+01
EXPONENTS  0.1397000D+01 0.1397000D+01 0.1397000D+01 0.1397000D+01 0.1397000D+01
EXPONENTS  0.1397000D+01 0.1397000D+01 0.8264000D+02 0.1241000D+02 0.2824000D+01
EXPONENTS  0.7977000D+00 0.2581000D+00 0.8989000D-01 0.2292000D+01 0.2292000D+01
EXPONENTS  0.2292000D+01 0.8380000D+00 0.8380000D+00 0.8380000D+00 0.2920000D+00
EXPONENTS  0.2920000D+00 0.2920000D+00 0.2062000D+01 0.2062000D+01 0.2062000D+01
EXPONENTS  0.2062000D+01 0.2062000D+01 0.2062000D+01 0.6620000D+00 0.6620000D+00
EXPONENTS  0.6620000D+00 0.6620000D+00 0.6620000D+00 0.6620000D+00 0.1397000D+01
EXPONENTS  0.1397000D+01 0.1397000D+01 0.1397000D+01 0.1397000D+01 0.1397000D+01
EXPONENTS  0.1397000D+01 0.1397000D+01 0.1397000D+01 0.1397000D+01
MO    1     MO 0.0        OCC NO =    1.0000000  ORB. ENERGY =   -0.499946
  0.39186803D-01  0.72302829D-01  0.11734534D+00  0.15452891D+00  0.12836007D+00
  0.34648114D-01 -0.82416052D-16  0.11360233D-15  0.10422375D-07  0.59522679D-16
 -0.56568221D-16 -0.10977046D-07 -0.17204873D-16  0.15728220D-16  0.66800428D-08
  0.79118482D-09  0.79118480D-09 -0.15823696D-08  0.16044618D-16  0.11342927D-17
 -0.28985119D-16 -0.43717225D-09 -0.43717225D-09  0.87434450D-09 -0.91805434D-17
 -0.95123457D-18  0.39461060D-17  0.38741202D-23 -0.30235033D-23  0.13291404D-09
 -0.11691619D-24 -0.34856858D-23 -0.19937106D-09 -0.11505444D-22  0.12556196D-22
 -0.19937106D-09  0.31468517D-23 -0.35072232D-05 -0.64711112D-05 -0.10502420D-04
  0.37542383D-04 -0.51911151D-04  0.27741971D-04 -0.70051094D-16  0.12643210D-15
 -0.92421950D-05  0.59873041D-16 -0.77581072D-16  0.10080437D-04 -0.96359718D-17
  0.16844652D-16 -0.48813971D-05  0.71475760D-06  0.71475760D-06 -0.14295152D-05
  0.13995013D-15 -0.25719968D-16 -0.59785041D-17 -0.35051399D-06 -0.35051399D-06
  0.70102799D-06 -0.13296126D-16  0.67692263D-17 -0.61855529D-17 -0.36251085D-20
  0.31454058D-19 -0.10510446D-06  0.14956373D-19 -0.11103439D-18  0.15765668D-06
 -0.40810471D-20  0.16672218D-19  0.15765668D-06  0.23167148D-20
END DATA
 TOTAL ENERGY =       -0.499945579162 THE VIRIAL(-V/T)=   2.00000191
