 TITLE
GAUSSIAN              1 MOL ORBITALS     74 PRIMITIVES        2 NUCLEI
  H    1    (CENTRE  1)   0.00000000  0.00000000  0.00000000  CHARGE =  1.0
  H    2    (CENTRE  2)   0.00000000  0.00000000  5.66917837  CHARGE =  0.0
CENTRE ASSIGNMENTS    1  1  1  1  1  1  1  1  1  1  1  1  1  1  1  1  1  1  1  1
CENTRE ASSIGNMENTS    1  1  1  1  1  1  1  1  1  1  1  1  1  1  1  1  1  2  2  2
CENTRE ASSIGNMENTS    2  2  2  2  2  2  2  2  2  2  2  2  2  2  2  2  2  2  2  2
CENTRE ASSIGNMENTS    2  2  2  2  2  2  2  2  2  2  2  2  2  2
TYPE ASSIGNMENTS      1  1  1  1  1  1  2  3  4  2  3  4  2  3  4  5  6  7  8  9
TYPE ASSIGNMENTS     10  5  6  7  8  9 10 11 12 13 17 14 15 18 19 16 20  1  1  1
TYPE ASSIGNMENTS      1  1  1  2  3  4  2  3  4  2  3  4  5  6  7  8  9 10  5  6
TYPE ASSIGNMENTS      7  8  9 10 11 12 13 17 14 15 18 19 16 20
EXPONENTS  0.8264000D+02 0.1241000D+02 0.2824000D+01 0.7977000D+00 0.2581000D+00
EXPONENTS  0.8989000D-01 0.2292000D+01 0.2292000D+01 0.2292000D+01 0.8380000D+00
EXPONENTS  0.8380000D+00 0.8380000D+00 0.2920000D+00 0.2920000D+00 0.2920000D+00
EXPONENTS  0.2062000D+01 0.2062000D+01 0.2062000D+01 0.2062000D+01 0.2062000D+01
EXPONENTS  0.2062000D+01 0.6620000D+00 0.6620000D+00 0.6620000D+00 0.6620000D+00
EXPONENTS  0.6620000D+00 0.6620000D+00 0.1397000D+01 0.1397000D+01 0.1397000D+01
EXPONENTS  0.1397000D+01 0.1397000D+01 0.1397000D+01 0.1397000D+01 0.1397000D+01
EXPONENTS  0.1397000D+01 0.1397000D+01 0.8264000D+02 0.1241000D+02 0.2824000D+01
EXPONENTS  0.7977000D+00 0.2581000D+00 0.8989000D-01 0.2292000D+01 0.2292000D+01
EXPONENTS  0.2292000D+01 0.8380000D+00 0.8380000D+00 0.8380000D+00 0.2920000D+00
EXPONENTS  0.2920000D+00 0.2920000D+00 0.2062000D+01 0.2062000D+01 0.2062000D+01
EXPONENTS  0.2062000D+01 0.2062000D+01 0.2062000D+01 0.6620000D+00 0.6620000D+00
EXPONENTS  0.6620000D+00 0.6620000D+00 0.6620000D+00 0.6620000D+00 0.1397000D+01
EXPONENTS  0.1397000D+01 0.1397000D+01 0.1397000D+01 0.1397000D+01 0.1397000D+01
EXPONENTS  0.1397000D+01 0.1397000D+01 0.1397000D+01 0.1397000D+01
MO    1     MO 0.0        OCC NO =    1.0000000  ORB. ENERGY =   -0.499946
  0.39188105D-01  0.72305232D-01  0.11734924D+00  0.15450675D+00  0.12840039D+00
  0.34610986D-01  0.30863699D-16 -0.37963418D-16 -0.41121704D-04 -0.15722534D-17
  0.26021137D-16  0.50249905D-04 -0.41862023D-17 -0.35927821D-17 -0.29389239D-04
 -0.85520464D-05 -0.85520464D-05  0.17104093D-04  0.14108201D-15  0.31628241D-15
  0.11278474D-15  0.45242023D-05  0.45242023D-05 -0.90484047D-05 -0.64870411D-17
 -0.62921295D-16 -0.15290941D-16  0.32227430D-19  0.13891370D-18 -0.19929895D-05
  0.31411850D-19  0.13688605D-18  0.29894843D-05 -0.12809414D-18 -0.55362713D-18
  0.29894843D-05 -0.86412943D-21 -0.78955686D-05 -0.14567964D-04 -0.23643372D-04
  0.10888413D-03 -0.27395372D-03  0.18228501D-03  0.81625918D-16  0.34284788D-15
  0.24244847D-04 -0.18378126D-16 -0.74961782D-16 -0.15072417D-04  0.80805829D-18
 -0.23211972D-17  0.10909390D-03  0.81717323D-04  0.81717323D-04 -0.16343465D-03
 -0.26732030D-16 -0.11913149D-14 -0.16377903D-14 -0.36557895D-04 -0.36557895D-04
  0.73115790D-04 -0.13442364D-16  0.71483678D-16  0.11001204D-15  0.38140376D-18
  0.12972565D-17 -0.87734583D-04 -0.47047292D-19 -0.41448085D-17  0.13160187D-03
 -0.10971640D-17  0.25303887D-18  0.13160187D-03 -0.39041197D-19
END DATA
 TOTAL ENERGY =       -0.499946134438 THE VIRIAL(-V/T)=   2.00003703
