 TITLE
GAUSSIAN              1 MOL ORBITALS     74 PRIMITIVES        2 NUCLEI
  H    1    (CENTRE  1)   0.00000000  0.00000000  0.00000000  CHARGE =  1.0
  H    2    (CENTRE  2)   0.00000000  0.00000000  2.83458919  CHARGE =  0.0
CENTRE ASSIGNMENTS    1  1  1  1  1  1  1  1  1  1  1  1  1  1  1  1  1  1  1  1
CENTRE ASSIGNMENTS    1  1  1  1  1  1  1  1  1  1  1  1  1  1  1  1  1  2  2  2
CENTRE ASSIGNMENTS    2  2  2  2  2  2  2  2  2  2  2  2  2  2  2  2  2  2  2  2
CENTRE ASSIGNMENTS    2  2  2  2  2  2  2  2  2  2  2  2  2  2
TYPE ASSIGNMENTS      1  1  1  1  1  1  2  3  4  2  3  4  2  3  4  5  6  7  8  9
TYPE ASSIGNMENTS     10  5  6  7  8  9 10 11 12 13 17 14 15 18 19 16 20  1  1  1
TYPE ASSIGNMENTS      1  1  1  2  3  4  2  3  4  2  3  4  5  6  7  8  9 10  5  6
TYPE ASSIGNMENTS      7  8  9 10 11 12 13 17 14 15 18 19 16 20
EXPONENTS  0.8264000D+02 0.1241000D+02 0.2824000D+01 0.7977000D+00 0.2581000D+00
EXPONENTS  0.8989000D-01 0.2292000D+01 0.2292000D+01 0.2292000D+01 0.8380000D+00
EXPONENTS  0.8380000D+00 0.8380000D+00 0.2920000D+00 0.2920000D+00 0.2920000D+00
EXPONENTS  0.2062000D+01 0.2062000D+01 0.2062000D+01 0.2062000D+01 0.2062000D+01
EXPONENTS  0.2062000D+01 0.6620000D+00 0.6620000D+00 0.6620000D+00 0.6620000D+00
EXPONENTS  0.6620000D+00 0.6620000D+00 0.1397000D+01 0.1397000D+01 0.1397000D+01
EXPONENTS  0.1397000D+01 0.1397000D+01 0.1397000D+01 0.1397000D+01 0.1397000D+01
EXPONENTS  0.1397000D+01 0.1397000D+01 0.8264000D+02 0.1241000D+02 0.2824000D+01
EXPONENTS  0.7977000D+00 0.2581000D+00 0.8989000D-01 0.2292000D+01 0.2292000D+01
EXPONENTS  0.2292000D+01 0.8380000D+00 0.8380000D+00 0.8380000D+00 0.2920000D+00
EXPONENTS  0.2920000D+00 0.2920000D+00 0.2062000D+01 0.2062000D+01 0.2062000D+01
EXPONENTS  0.2062000D+01 0.2062000D+01 0.2062000D+01 0.6620000D+00 0.6620000D+00
EXPONENTS  0.6620000D+00 0.6620000D+00 0.6620000D+00 0.6620000D+00 0.1397000D+01
EXPONENTS  0.1397000D+01 0.1397000D+01 0.1397000D+01 0.1397000D+01 0.1397000D+01
EXPONENTS  0.1397000D+01 0.1397000D+01 0.1397000D+01 0.1397000D+01
MO    1     MO 0.0        OCC NO =    1.0000000  ORB. ENERGY =   -0.499946
  0.39184457D-01  0.72298502D-01  0.11733831D+00  0.15460381D+00  0.12822153D+00
  0.34603463D-01 -0.13927862D-16 -0.83746648D-16  0.48717048D-04 -0.30514398D-16
  0.62852186D-16  0.19182870D-04  0.10520910D-16 -0.22150663D-16 -0.17897878D-03
 -0.10410900D-03 -0.10410900D-03  0.20821800D-03 -0.62969722D-16 -0.34951030D-15
  0.56616624D-15  0.77539616D-04  0.77539616D-04 -0.15507923D-03 -0.16013095D-16
  0.46135798D-16  0.20907772D-16  0.48143427D-16  0.35967938D-16 -0.80196350D-04
  0.48146370D-16  0.35968903D-16  0.12029453D-03 -0.19257665D-15 -0.14387272D-15
  0.12029453D-03  0.97466874D-15 -0.25300223D-04 -0.46680963D-04 -0.75761810D-04
 -0.56389405D-04  0.11363338D-03  0.55306674D-04  0.28519050D-15 -0.50181299D-16
 -0.16774475D-03 -0.73866158D-16  0.74957228D-16  0.38904171D-03 -0.17136162D-16
 -0.32082605D-16 -0.26658221D-03 -0.23619313D-03 -0.23619313D-03  0.47238626D-03
 -0.14322027D-15  0.61693163D-15  0.79410083D-15 -0.60795499D-04 -0.60795499D-04
  0.12159100D-03 -0.12134498D-16 -0.47781393D-16 -0.12624301D-15 -0.48961758D-16
 -0.51927000D-16 -0.47698489D-03 -0.48961666D-16 -0.51927004D-16  0.71547733D-03
  0.19584694D-15  0.20770800D-15  0.71547733D-03 -0.70937645D-15
END DATA
 TOTAL ENERGY =       -0.499945911358 THE VIRIAL(-V/T)=   2.00000294
