 TITLE
GAUSSIAN              1 MOL ORBITALS     74 PRIMITIVES        2 NUCLEI
  H    1    (CENTRE  1)   0.00000000  0.00000000  0.00000000  CHARGE =  1.0
  H    2    (CENTRE  2)   0.00000000  0.00000000  3.40150702  CHARGE =  0.0
CENTRE ASSIGNMENTS    1  1  1  1  1  1  1  1  1  1  1  1  1  1  1  1  1  1  1  1
CENTRE ASSIGNMENTS    1  1  1  1  1  1  1  1  1  1  1  1  1  1  1  1  1  2  2  2
CENTRE ASSIGNMENTS    2  2  2  2  2  2  2  2  2  2  2  2  2  2  2  2  2  2  2  2
CENTRE ASSIGNMENTS    2  2  2  2  2  2  2  2  2  2  2  2  2  2
TYPE ASSIGNMENTS      1  1  1  1  1  1  2  3  4  2  3  4  2  3  4  5  6  7  8  9
TYPE ASSIGNMENTS     10  5  6  7  8  9 10 11 12 13 17 14 15 18 19 16 20  1  1  1
TYPE ASSIGNMENTS      1  1  1  2  3  4  2  3  4  2  3  4  5  6  7  8  9 10  5  6
TYPE ASSIGNMENTS      7  8  9 10 11 12 13 17 14 15 18 19 16 20
EXPONENTS  0.8264000D+02 0.1241000D+02 0.2824000D+01 0.7977000D+00 0.2581000D+00
EXPONENTS  0.8989000D-01 0.2292000D+01 0.2292000D+01 0.2292000D+01 0.8380000D+00
EXPONENTS  0.8380000D+00 0.8380000D+00 0.2920000D+00 0.2920000D+00 0.2920000D+00
EXPONENTS  0.2062000D+01 0.2062000D+01 0.2062000D+01 0.2062000D+01 0.2062000D+01
EXPONENTS  0.2062000D+01 0.6620000D+00 0.6620000D+00 0.6620000D+00 0.6620000D+00
EXPONENTS  0.6620000D+00 0.6620000D+00 0.1397000D+01 0.1397000D+01 0.1397000D+01
EXPONENTS  0.1397000D+01 0.1397000D+01 0.1397000D+01 0.1397000D+01 0.1397000D+01
EXPONENTS  0.1397000D+01 0.1397000D+01 0.8264000D+02 0.1241000D+02 0.2824000D+01
EXPONENTS  0.7977000D+00 0.2581000D+00 0.8989000D-01 0.2292000D+01 0.2292000D+01
EXPONENTS  0.2292000D+01 0.8380000D+00 0.8380000D+00 0.8380000D+00 0.2920000D+00
EXPONENTS  0.2920000D+00 0.2920000D+00 0.2062000D+01 0.2062000D+01 0.2062000D+01
EXPONENTS  0.2062000D+01 0.2062000D+01 0.2062000D+01 0.6620000D+00 0.6620000D+00
EXPONENTS  0.6620000D+00 0.6620000D+00 0.6620000D+00 0.6620000D+00 0.1397000D+01
EXPONENTS  0.1397000D+01 0.1397000D+01 0.1397000D+01 0.1397000D+01 0.1397000D+01
EXPONENTS  0.1397000D+01 0.1397000D+01 0.1397000D+01 0.1397000D+01
MO    1     MO 0.0        OCC NO =    1.0000000  ORB. ENERGY =   -0.499946
  0.39189360D-01  0.72307547D-01  0.11735299D+00  0.15450880D+00  0.12838598D+00
  0.34576629D-01 -0.33961385D-15  0.26785746D-16 -0.28940182D-04  0.35060679D-15
 -0.53828087D-16  0.44370969D-04 -0.11427668D-15  0.25263727D-16 -0.63353057D-04
 -0.21352492D-05 -0.21352492D-05  0.42704984D-05  0.22410178D-15  0.53736410D-15
  0.30903670D-15  0.76540137D-05  0.76540137D-05 -0.15308027D-04 -0.12569331D-15
  0.15726516D-15 -0.19325845D-15  0.42373011D-16 -0.11061533D-16 -0.26988031D-05
  0.42373008D-16 -0.11061532D-16  0.40482046D-05 -0.16949204D-15  0.44246131D-16
  0.40482046D-05  0.49765084D-15 -0.93487087D-05 -0.17249126D-04 -0.27994817D-04
  0.20342500D-03 -0.20397440D-03  0.12656217D-03  0.19652862D-15  0.32181162D-15
 -0.10839330D-03  0.84330660D-16 -0.19818658D-15  0.40716142D-03  0.20345519D-16
  0.11462275D-16 -0.19120591D-03  0.10219832D-03  0.10219832D-03 -0.20439664D-03
 -0.68089480D-15  0.19743594D-14  0.83280124D-16  0.55669986D-04  0.55669986D-04
 -0.11133997D-03  0.10227517D-16 -0.29659022D-15  0.10689759D-15 -0.40554924D-16
  0.16172049D-16 -0.19489193D-03 -0.40554924D-16  0.16172047D-16  0.29233789D-03
  0.16221970D-15 -0.64688193D-16  0.29233789D-03  0.15387751D-15
END DATA
 TOTAL ENERGY =       -0.499945951681 THE VIRIAL(-V/T)=   2.00001176
