 TITLE
GAUSSIAN              1 MOL ORBITALS     74 PRIMITIVES        2 NUCLEI
  H    1    (CENTRE  1)   0.00000000  0.00000000  0.00000000  CHARGE =  1.0
  H    2    (CENTRE  2)   0.00000000  0.00000000 13.03911026  CHARGE =  0.0
CENTRE ASSIGNMENTS    1  1  1  1  1  1  1  1  1  1  1  1  1  1  1  1  1  1  1  1
CENTRE ASSIGNMENTS    1  1  1  1  1  1  1  1  1  1  1  1  1  1  1  1  1  2  2  2
CENTRE ASSIGNMENTS    2  2  2  2  2  2  2  2  2  2  2  2  2  2  2  2  2  2  2  2
CENTRE ASSIGNMENTS    2  2  2  2  2  2  2  2  2  2  2  2  2  2
TYPE ASSIGNMENTS      1  1  1  1  1  1  2  3  4  2  3  4  2  3  4  5  6  7  8  9
TYPE ASSIGNMENTS     10  5  6  7  8  9 10 11 12 13 17 14 15 18 19 16 20  1  1  1
TYPE ASSIGNMENTS      1  1  1  2  3  4  2  3  4  2  3  4  5  6  7  8  9 10  5  6
TYPE ASSIGNMENTS      7  8  9 10 11 12 13 17 14 15 18 19 16 20
EXPONENTS  0.8264000D+02 0.1241000D+02 0.2824000D+01 0.7977000D+00 0.2581000D+00
EXPONENTS  0.8989000D-01 0.2292000D+01 0.2292000D+01 0.2292000D+01 0.8380000D+00
EXPONENTS  0.8380000D+00 0.8380000D+00 0.2920000D+00 0.2920000D+00 0.2920000D+00
EXPONENTS  0.2062000D+01 0.2062000D+01 0.2062000D+01 0.2062000D+01 0.2062000D+01
EXPONENTS  0.2062000D+01 0.6620000D+00 0.6620000D+00 0.6620000D+00 0.6620000D+00
EXPONENTS  0.6620000D+00 0.6620000D+00 0.1397000D+01 0.1397000D+01 0.1397000D+01
EXPONENTS  0.1397000D+01 0.1397000D+01 0.1397000D+01 0.1397000D+01 0.1397000D+01
EXPONENTS  0.1397000D+01 0.1397000D+01 0.8264000D+02 0.1241000D+02 0.2824000D+01
EXPONENTS  0.7977000D+00 0.2581000D+00 0.8989000D-01 0.2292000D+01 0.2292000D+01
EXPONENTS  0.2292000D+01 0.8380000D+00 0.8380000D+00 0.8380000D+00 0.2920000D+00
EXPONENTS  0.2920000D+00 0.2920000D+00 0.2062000D+01 0.2062000D+01 0.2062000D+01
EXPONENTS  0.2062000D+01 0.2062000D+01 0.2062000D+01 0.6620000D+00 0.6620000D+00
EXPONENTS  0.6620000D+00 0.6620000D+00 0.6620000D+00 0.6620000D+00 0.1397000D+01
EXPONENTS  0.1397000D+01 0.1397000D+01 0.1397000D+01 0.1397000D+01 0.1397000D+01
EXPONENTS  0.1397000D+01 0.1397000D+01 0.1397000D+01 0.1397000D+01
MO    1     MO 0.0        OCC NO =    1.0000000  ORB. ENERGY =   -0.499946
  0.39186805D-01  0.72302834D-01  0.11734534D+00  0.15452891D+00  0.12836009D+00
  0.34648108D-01 -0.12184331D-16  0.91892725D-16  0.45362525D-08 -0.28222332D-17
 -0.52134085D-16 -0.47715058D-08  0.58071717D-17  0.22247705D-16  0.28719917D-08
  0.31610128D-09  0.31610122D-09 -0.63220250D-09 -0.37348305D-17  0.46663979D-16
  0.17464647D-17 -0.17315688D-09 -0.17315687D-09  0.34631375D-09 -0.44715238D-18
 -0.65698523D-17 -0.82611922D-17  0.47739118D-23 -0.15543671D-22  0.51422365D-10
 -0.12460251D-22 -0.24579625D-22 -0.77133548D-10 -0.18614846D-23  0.71210640D-22
 -0.77133548D-10  0.72492610D-23 -0.26740422D-05 -0.49338248D-05 -0.80074505D-05
  0.28505601D-04 -0.39030462D-04  0.20576588D-04 -0.11532081D-15  0.16479619D-15
 -0.55808712D-05  0.50825044D-16 -0.61651492D-16  0.60653149D-05 -0.77602393D-17
  0.41737311D-17 -0.29099996D-05  0.39496824D-06  0.39496824D-06 -0.78993649D-06
 -0.42219233D-17 -0.23117486D-16 -0.40635395D-16 -0.19253121D-06 -0.19253121D-06
  0.38506243D-06 -0.19815383D-18  0.61637057D-17  0.23990735D-17  0.29351618D-19
  0.55588279D-20 -0.56599028D-07  0.40723614D-19 -0.24865567D-19  0.84898542D-07
 -0.12877847D-18  0.81890829D-20  0.84898542D-07 -0.90830387D-20
END DATA
 TOTAL ENERGY =       -0.499945574383 THE VIRIAL(-V/T)=   2.00000175
