 TITLE
GAUSSIAN              1 MOL ORBITALS     74 PRIMITIVES        2 NUCLEI
  H    1    (CENTRE  1)   0.00000000  0.00000000  0.00000000  CHARGE =  1.0
  H    2    (CENTRE  2)   0.00000000  0.00000000  3.96842486  CHARGE =  0.0
CENTRE ASSIGNMENTS    1  1  1  1  1  1  1  1  1  1  1  1  1  1  1  1  1  1  1  1
CENTRE ASSIGNMENTS    1  1  1  1  1  1  1  1  1  1  1  1  1  1  1  1  1  2  2  2
CENTRE ASSIGNMENTS    2  2  2  2  2  2  2  2  2  2  2  2  2  2  2  2  2  2  2  2
CENTRE ASSIGNMENTS    2  2  2  2  2  2  2  2  2  2  2  2  2  2
TYPE ASSIGNMENTS      1  1  1  1  1  1  2  3  4  2  3  4  2  3  4  5  6  7  8  9
TYPE ASSIGNMENTS     10  5  6  7  8  9 10 11 12 13 17 14 15 18 19 16 20  1  1  1
TYPE ASSIGNMENTS      1  1  1  2  3  4  2  3  4  2  3  4  5  6  7  8  9 10  5  6
TYPE ASSIGNMENTS      7  8  9 10 11 12 13 17 14 15 18 19 16 20
EXPONENTS  0.8264000D+02 0.1241000D+02 0.2824000D+01 0.7977000D+00 0.2581000D+00
EXPONENTS  0.8989000D-01 0.2292000D+01 0.2292000D+01 0.2292000D+01 0.8380000D+00
EXPONENTS  0.8380000D+00 0.8380000D+00 0.2920000D+00 0.2920000D+00 0.2920000D+00
EXPONENTS  0.2062000D+01 0.2062000D+01 0.2062000D+01 0.2062000D+01 0.2062000D+01
EXPONENTS  0.2062000D+01 0.6620000D+00 0.6620000D+00 0.6620000D+00 0.6620000D+00
EXPONENTS  0.6620000D+00 0.6620000D+00 0.1397000D+01 0.1397000D+01 0.1397000D+01
EXPONENTS  0.1397000D+01 0.1397000D+01 0.1397000D+01 0.1397000D+01 0.1397000D+01
EXPONENTS  0.1397000D+01 0.1397000D+01 0.8264000D+02 0.1241000D+02 0.2824000D+01
EXPONENTS  0.7977000D+00 0.2581000D+00 0.8989000D-01 0.2292000D+01 0.2292000D+01
EXPONENTS  0.2292000D+01 0.8380000D+00 0.8380000D+00 0.8380000D+00 0.2920000D+00
EXPONENTS  0.2920000D+00 0.2920000D+00 0.2062000D+01 0.2062000D+01 0.2062000D+01
EXPONENTS  0.2062000D+01 0.2062000D+01 0.2062000D+01 0.6620000D+00 0.6620000D+00
EXPONENTS  0.6620000D+00 0.6620000D+00 0.6620000D+00 0.6620000D+00 0.1397000D+01
EXPONENTS  0.1397000D+01 0.1397000D+01 0.1397000D+01 0.1397000D+01 0.1397000D+01
EXPONENTS  0.1397000D+01 0.1397000D+01 0.1397000D+01 0.1397000D+01
MO    1     MO 0.0        OCC NO =    1.0000000  ORB. ENERGY =   -0.499946
  0.39190900D-01  0.72310389D-01  0.11735761D+00  0.15448514D+00  0.12841765D+00
  0.34579984D-01 -0.46303989D-16  0.45334399D-16 -0.11176337D-04  0.25253047D-16
 -0.11103218D-16  0.20514099D-04 -0.30015048D-16 -0.28634480D-16 -0.29001082D-04
  0.69512094D-05  0.69512094D-05 -0.13902419D-04 -0.77493459D-16 -0.88178684D-16
 -0.12947869D-16 -0.11527913D-05 -0.11527913D-05  0.23055825D-05  0.22773735D-16
  0.26138807D-16 -0.15967129D-16  0.42608457D-17  0.53313567D-17 -0.32424403D-07
  0.42594230D-17  0.53312094D-17  0.48636604D-07 -0.17041960D-16 -0.21325280D-16
  0.48636604D-07 -0.27285705D-17 -0.19730556D-04 -0.36404476D-04 -0.59083379D-04
  0.31754735D-03 -0.34866874D-03  0.16929316D-03  0.15510031D-16 -0.21231269D-15
 -0.10794633D-03 -0.21662960D-16  0.23763448D-17 -0.24424418D-04  0.96693637D-17
  0.23163149D-16 -0.71628846D-04 -0.15145630D-04 -0.15145630D-04  0.30291260D-04
 -0.51530027D-15 -0.47730731D-16 -0.18193548D-15  0.55943938D-04  0.55943938D-04
 -0.11188788D-03  0.38494476D-16 -0.13379609D-16  0.31630429D-16 -0.39390389D-17
 -0.19108661D-17  0.31077028D-03 -0.18522837D-17 -0.13817414D-17 -0.46615542D-03
  0.13669400D-16  0.71143397D-17 -0.46615542D-03  0.22495257D-15
END DATA
 TOTAL ENERGY =       -0.499946013493 THE VIRIAL(-V/T)=   2.00002350
