 TITLE
GAUSSIAN              1 MOL ORBITALS     74 PRIMITIVES        2 NUCLEI
  H    1    (CENTRE  1)   0.00000000  0.00000000  0.00000000  CHARGE =  1.0
  H    2    (CENTRE  2)   0.00000000  0.00000000 11.33835675  CHARGE =  0.0
CENTRE ASSIGNMENTS    1  1  1  1  1  1  1  1  1  1  1  1  1  1  1  1  1  1  1  1
CENTRE ASSIGNMENTS    1  1  1  1  1  1  1  1  1  1  1  1  1  1  1  1  1  2  2  2
CENTRE ASSIGNMENTS    2  2  2  2  2  2  2  2  2  2  2  2  2  2  2  2  2  2  2  2
CENTRE ASSIGNMENTS    2  2  2  2  2  2  2  2  2  2  2  2  2  2
TYPE ASSIGNMENTS      1  1  1  1  1  1  2  3  4  2  3  4  2  3  4  5  6  7  8  9
TYPE ASSIGNMENTS     10  5  6  7  8  9 10 11 12 13 17 14 15 18 19 16 20  1  1  1
TYPE ASSIGNMENTS      1  1  1  2  3  4  2  3  4  2  3  4  5  6  7  8  9 10  5  6
TYPE ASSIGNMENTS      7  8  9 10 11 12 13 17 14 15 18 19 16 20
EXPONENTS  0.8264000D+02 0.1241000D+02 0.2824000D+01 0.7977000D+00 0.2581000D+00
EXPONENTS  0.8989000D-01 0.2292000D+01 0.2292000D+01 0.2292000D+01 0.8380000D+00
EXPONENTS  0.8380000D+00 0.8380000D+00 0.2920000D+00 0.2920000D+00 0.2920000D+00
EXPONENTS  0.2062000D+01 0.2062000D+01 0.2062000D+01 0.2062000D+01 0.2062000D+01
EXPONENTS  0.2062000D+01 0.6620000D+00 0.6620000D+00 0.6620000D+00 0.6620000D+00
EXPONENTS  0.6620000D+00 0.6620000D+00 0.1397000D+01 0.1397000D+01 0.1397000D+01
EXPONENTS  0.1397000D+01 0.1397000D+01 0.1397000D+01 0.1397000D+01 0.1397000D+01
EXPONENTS  0.1397000D+01 0.1397000D+01 0.8264000D+02 0.1241000D+02 0.2824000D+01
EXPONENTS  0.7977000D+00 0.2581000D+00 0.8989000D-01 0.2292000D+01 0.2292000D+01
EXPONENTS  0.2292000D+01 0.8380000D+00 0.8380000D+00 0.8380000D+00 0.2920000D+00
EXPONENTS  0.2920000D+00 0.2920000D+00 0.2062000D+01 0.2062000D+01 0.2062000D+01
EXPONENTS  0.2062000D+01 0.2062000D+01 0.2062000D+01 0.6620000D+00 0.6620000D+00
EXPONENTS  0.6620000D+00 0.6620000D+00 0.6620000D+00 0.6620000D+00 0.1397000D+01
EXPONENTS  0.1397000D+01 0.1397000D+01 0.1397000D+01 0.1397000D+01 0.1397000D+01
EXPONENTS  0.1397000D+01 0.1397000D+01 0.1397000D+01 0.1397000D+01
MO    1     MO 0.0        OCC NO =    1.0000000  ORB. ENERGY =   -0.499946
  0.39186785D-01  0.72302797D-01  0.11734528D+00  0.15452876D+00  0.12836004D+00
  0.34648089D-01  0.25214429D-16  0.96785579D-16  0.12527098D-06 -0.20721835D-16
 -0.44453095D-16 -0.13209581D-06  0.70865245D-17  0.15505651D-16  0.85412390D-07
  0.12678300D-07  0.12678300D-07 -0.25356601D-07  0.50113036D-16  0.17593223D-16
  0.14374139D-16 -0.72599234D-08 -0.72599234D-08  0.14519847D-07 -0.26851030D-16
  0.44305234D-17  0.81084840D-17 -0.19668704D-23 -0.57556171D-23  0.23607061D-08
  0.35175659D-23 -0.19242336D-24 -0.35410592D-08  0.23830454D-23  0.17459275D-22
 -0.35410592D-08 -0.89409298D-23 -0.69444519D-05 -0.12813077D-04 -0.20795242D-04
  0.76106809D-04 -0.11165825D-03  0.64957521D-04  0.94956429D-16 -0.60475553D-16
 -0.41945730D-04 -0.21502565D-16  0.34950924D-16  0.46519664D-04  0.30939190D-17
 -0.67544108D-17 -0.23587008D-04  0.43371876D-05  0.43371876D-05 -0.86743751D-05
 -0.12844344D-16  0.21175384D-15  0.13380893D-15 -0.21816607D-05 -0.21816607D-05
  0.43633214D-05  0.61846456D-17 -0.12700002D-16 -0.10413891D-16 -0.87052949D-20
 -0.20831333D-20 -0.67458926D-06 -0.86028700D-19  0.12009608D-19  0.10118839D-05
  0.11214458D-18 -0.57602080D-20  0.10118839D-05  0.11208678D-18
END DATA
 TOTAL ENERGY =       -0.499945629657 THE VIRIAL(-V/T)=   2.00000393
