 TITLE
GAUSSIAN              1 MOL ORBITALS     74 PRIMITIVES        2 NUCLEI
  H    1    (CENTRE  1)   0.00000000  0.00000000  0.00000000  CHARGE =  1.0
  H    2    (CENTRE  2)   0.00000000  0.00000000  6.42506882  CHARGE =  0.0
CENTRE ASSIGNMENTS    1  1  1  1  1  1  1  1  1  1  1  1  1  1  1  1  1  1  1  1
CENTRE ASSIGNMENTS    1  1  1  1  1  1  1  1  1  1  1  1  1  1  1  1  1  2  2  2
CENTRE ASSIGNMENTS    2  2  2  2  2  2  2  2  2  2  2  2  2  2  2  2  2  2  2  2
CENTRE ASSIGNMENTS    2  2  2  2  2  2  2  2  2  2  2  2  2  2
TYPE ASSIGNMENTS      1  1  1  1  1  1  2  3  4  2  3  4  2  3  4  5  6  7  8  9
TYPE ASSIGNMENTS     10  5  6  7  8  9 10 11 12 13 17 14 15 18 19 16 20  1  1  1
TYPE ASSIGNMENTS      1  1  1  2  3  4  2  3  4  2  3  4  5  6  7  8  9 10  5  6
TYPE ASSIGNMENTS      7  8  9 10 11 12 13 17 14 15 18 19 16 20
EXPONENTS  0.8264000D+02 0.1241000D+02 0.2824000D+01 0.7977000D+00 0.2581000D+00
EXPONENTS  0.8989000D-01 0.2292000D+01 0.2292000D+01 0.2292000D+01 0.8380000D+00
EXPONENTS  0.8380000D+00 0.8380000D+00 0.2920000D+00 0.2920000D+00 0.2920000D+00
EXPONENTS  0.2062000D+01 0.2062000D+01 0.2062000D+01 0.2062000D+01 0.2062000D+01
EXPONENTS  0.2062000D+01 0.6620000D+00 0.6620000D+00 0.6620000D+00 0.6620000D+00
EXPONENTS  0.6620000D+00 0.6620000D+00 0.1397000D+01 0.1397000D+01 0.1397000D+01
EXPONENTS  0.1397000D+01 0.1397000D+01 0.1397000D+01 0.1397000D+01 0.1397000D+01
EXPONENTS  0.1397000D+01 0.1397000D+01 0.8264000D+02 0.1241000D+02 0.2824000D+01
EXPONENTS  0.7977000D+00 0.2581000D+00 0.8989000D-01 0.2292000D+01 0.2292000D+01
EXPONENTS  0.2292000D+01 0.8380000D+00 0.8380000D+00 0.8380000D+00 0.2920000D+00
EXPONENTS  0.2920000D+00 0.2920000D+00 0.2062000D+01 0.2062000D+01 0.2062000D+01
EXPONENTS  0.2062000D+01 0.2062000D+01 0.2062000D+01 0.6620000D+00 0.6620000D+00
EXPONENTS  0.6620000D+00 0.6620000D+00 0.6620000D+00 0.6620000D+00 0.1397000D+01
EXPONENTS  0.1397000D+01 0.1397000D+01 0.1397000D+01 0.1397000D+01 0.1397000D+01
EXPONENTS  0.1397000D+01 0.1397000D+01 0.1397000D+01 0.1397000D+01
MO    1     MO 0.0        OCC NO =    1.0000000  ORB. ENERGY =   -0.499946
  0.39188123D-01  0.72305265D-01  0.11734929D+00  0.15450743D+00  0.12839475D+00
  0.34622351D-01 -0.68902458D-18  0.72084348D-16 -0.26496801D-04  0.84439726D-17
 -0.53364519D-16  0.31060258D-04  0.54697590D-18  0.16067162D-16 -0.15249598D-04
 -0.37937044D-05 -0.37937044D-05  0.75874087D-05 -0.42907321D-16  0.13997833D-15
 -0.84845737D-16  0.17498266D-05  0.17498266D-05 -0.34996532D-05  0.29700194D-16
 -0.22171334D-16  0.12427905D-16 -0.21498233D-20 -0.12854299D-18 -0.67760997D-06
 -0.13255916D-19 -0.12836686D-18  0.10164150D-05  0.19705386D-19  0.51399584D-18
  0.10164150D-05 -0.15345414D-19 -0.13279694D-04 -0.24502112D-04 -0.39766197D-04
  0.16259547D-03 -0.21753004D-03  0.16509494D-03 -0.97977424D-16 -0.18623897D-14
  0.59195436D-04  0.24417470D-16  0.43715408D-15 -0.10446751D-03 -0.69437312D-17
 -0.41988491D-16  0.13599988D-03 -0.75741599D-04 -0.75741599D-04  0.15148320D-03
  0.20834942D-15  0.19939191D-15 -0.22178863D-15  0.50498270D-04  0.50498270D-04
 -0.10099654D-03 -0.15757295D-16 -0.25576242D-17  0.96009422D-17 -0.36799070D-18
 -0.44611323D-18  0.85877871D-05  0.15352864D-17  0.18267844D-17 -0.12881681D-04
 -0.43131430D-18 -0.48844475D-18 -0.12881681D-04  0.16967939D-19
END DATA
 TOTAL ENERGY =       -0.499946148510 THE VIRIAL(-V/T)=   2.00003332
