 TITLE
GAUSSIAN              1 MOL ORBITALS     74 PRIMITIVES        2 NUCLEI
  H    1    (CENTRE  1)   0.00000000  0.00000000  0.00000000  CHARGE =  1.0
  H    2    (CENTRE  2)   0.00000000  0.00000000  1.88972612  CHARGE =  0.0
CENTRE ASSIGNMENTS    1  1  1  1  1  1  1  1  1  1  1  1  1  1  1  1  1  1  1  1
CENTRE ASSIGNMENTS    1  1  1  1  1  1  1  1  1  1  1  1  1  1  1  1  1  2  2  2
CENTRE ASSIGNMENTS    2  2  2  2  2  2  2  2  2  2  2  2  2  2  2  2  2  2  2  2
CENTRE ASSIGNMENTS    2  2  2  2  2  2  2  2  2  2  2  2  2  2
TYPE ASSIGNMENTS      1  1  1  1  1  1  2  3  4  2  3  4  2  3  4  5  6  7  8  9
TYPE ASSIGNMENTS     10  5  6  7  8  9 10 11 12 13 17 14 15 18 19 16 20  1  1  1
TYPE ASSIGNMENTS      1  1  1  2  3  4  2  3  4  2  3  4  5  6  7  8  9 10  5  6
TYPE ASSIGNMENTS      7  8  9 10 11 12 13 17 14 15 18 19 16 20
EXPONENTS  0.8264000D+02 0.1241000D+02 0.2824000D+01 0.7977000D+00 0.2581000D+00
EXPONENTS  0.8989000D-01 0.2292000D+01 0.2292000D+01 0.2292000D+01 0.8380000D+00
EXPONENTS  0.8380000D+00 0.8380000D+00 0.2920000D+00 0.2920000D+00 0.2920000D+00
EXPONENTS  0.2062000D+01 0.2062000D+01 0.2062000D+01 0.2062000D+01 0.2062000D+01
EXPONENTS  0.2062000D+01 0.6620000D+00 0.6620000D+00 0.6620000D+00 0.6620000D+00
EXPONENTS  0.6620000D+00 0.6620000D+00 0.1397000D+01 0.1397000D+01 0.1397000D+01
EXPONENTS  0.1397000D+01 0.1397000D+01 0.1397000D+01 0.1397000D+01 0.1397000D+01
EXPONENTS  0.1397000D+01 0.1397000D+01 0.8264000D+02 0.1241000D+02 0.2824000D+01
EXPONENTS  0.7977000D+00 0.2581000D+00 0.8989000D-01 0.2292000D+01 0.2292000D+01
EXPONENTS  0.2292000D+01 0.8380000D+00 0.8380000D+00 0.8380000D+00 0.2920000D+00
EXPONENTS  0.2920000D+00 0.2920000D+00 0.2062000D+01 0.2062000D+01 0.2062000D+01
EXPONENTS  0.2062000D+01 0.2062000D+01 0.2062000D+01 0.6620000D+00 0.6620000D+00
EXPONENTS  0.6620000D+00 0.6620000D+00 0.6620000D+00 0.6620000D+00 0.1397000D+01
EXPONENTS  0.1397000D+01 0.1397000D+01 0.1397000D+01 0.1397000D+01 0.1397000D+01
EXPONENTS  0.1397000D+01 0.1397000D+01 0.1397000D+01 0.1397000D+01
MO    1     MO 0.0        OCC NO =    1.0000000  ORB. ENERGY =   -0.499946
  0.39201867D-01  0.72330623D-01  0.11739044D+00  0.15434494D+00  0.12790146D+00
  0.34685498D-01 -0.14450913D-15 -0.83911379D-16  0.11079378D-03  0.10730171D-15
  0.11318084D-15 -0.49164119D-03  0.11063173D-16  0.32595498D-16 -0.26862733D-03
 -0.18381366D-04 -0.18381366D-04  0.36762732D-04  0.89548601D-16  0.52291118D-15
  0.31019133D-15  0.10846214D-03  0.10846214D-03 -0.21692427D-03 -0.36758146D-16
  0.13221132D-15  0.12935319D-15 -0.20828234D-15 -0.12446508D-15  0.10273546D-03
 -0.19501466D-15 -0.80879984D-16 -0.15410319D-03  0.81986167D-15  0.45427524D-15
 -0.15410319D-03 -0.89430255D-16  0.34312451D-04  0.63309254D-04  0.10274903D-03
 -0.11351939D-03  0.59580374D-03 -0.61204812D-04  0.46785575D-15  0.34419369D-15
  0.88435886D-03 -0.24456063D-15 -0.13712171D-15 -0.84440526D-03  0.19207270D-16
 -0.31010248D-16 -0.19847306D-03  0.65382921D-03  0.65382921D-03 -0.13076584D-02
  0.14824632D-15  0.66629505D-15 -0.11175515D-15 -0.23563084D-03 -0.23563084D-03
  0.47126168D-03 -0.10870166D-16  0.12140131D-15  0.16733269D-15  0.18176006D-15
  0.14291698D-15  0.43659031D-04  0.18198811D-15  0.14088719D-15 -0.65488546D-04
 -0.72726829D-15 -0.56963813D-15 -0.65488546D-04 -0.12168291D-15
END DATA
 TOTAL ENERGY =       -0.499946030754 THE VIRIAL(-V/T)=   1.99999385
