 TITLE
GAUSSIAN              1 MOL ORBITALS     74 PRIMITIVES        2 NUCLEI
  H    1    (CENTRE  1)   0.00000000  0.00000000  0.00000000  CHARGE =  1.0
  H    2    (CENTRE  2)   0.00000000  0.00000000  9.44863062  CHARGE =  0.0
CENTRE ASSIGNMENTS    1  1  1  1  1  1  1  1  1  1  1  1  1  1  1  1  1  1  1  1
CENTRE ASSIGNMENTS    1  1  1  1  1  1  1  1  1  1  1  1  1  1  1  1  1  2  2  2
CENTRE ASSIGNMENTS    2  2  2  2  2  2  2  2  2  2  2  2  2  2  2  2  2  2  2  2
CENTRE ASSIGNMENTS    2  2  2  2  2  2  2  2  2  2  2  2  2  2
TYPE ASSIGNMENTS      1  1  1  1  1  1  2  3  4  2  3  4  2  3  4  5  6  7  8  9
TYPE ASSIGNMENTS     10  5  6  7  8  9 10 11 12 13 17 14 15 18 19 16 20  1  1  1
TYPE ASSIGNMENTS      1  1  1  2  3  4  2  3  4  2  3  4  5  6  7  8  9 10  5  6
TYPE ASSIGNMENTS      7  8  9 10 11 12 13 17 14 15 18 19 16 20
EXPONENTS  0.8264000D+02 0.1241000D+02 0.2824000D+01 0.7977000D+00 0.2581000D+00
EXPONENTS  0.8989000D-01 0.2292000D+01 0.2292000D+01 0.2292000D+01 0.8380000D+00
EXPONENTS  0.8380000D+00 0.8380000D+00 0.2920000D+00 0.2920000D+00 0.2920000D+00
EXPONENTS  0.2062000D+01 0.2062000D+01 0.2062000D+01 0.2062000D+01 0.2062000D+01
EXPONENTS  0.2062000D+01 0.6620000D+00 0.6620000D+00 0.6620000D+00 0.6620000D+00
EXPONENTS  0.6620000D+00 0.6620000D+00 0.1397000D+01 0.1397000D+01 0.1397000D+01
EXPONENTS  0.1397000D+01 0.1397000D+01 0.1397000D+01 0.1397000D+01 0.1397000D+01
EXPONENTS  0.1397000D+01 0.1397000D+01 0.8264000D+02 0.1241000D+02 0.2824000D+01
EXPONENTS  0.7977000D+00 0.2581000D+00 0.8989000D-01 0.2292000D+01 0.2292000D+01
EXPONENTS  0.2292000D+01 0.8380000D+00 0.8380000D+00 0.8380000D+00 0.2920000D+00
EXPONENTS  0.2920000D+00 0.2920000D+00 0.2062000D+01 0.2062000D+01 0.2062000D+01
EXPONENTS  0.2062000D+01 0.2062000D+01 0.2062000D+01 0.6620000D+00 0.6620000D+00
EXPONENTS  0.6620000D+00 0.6620000D+00 0.6620000D+00 0.6620000D+00 0.1397000D+01
EXPONENTS  0.1397000D+01 0.1397000D+01 0.1397000D+01 0.1397000D+01 0.1397000D+01
EXPONENTS  0.1397000D+01 0.1397000D+01 0.1397000D+01 0.1397000D+01
MO    1     MO 0.0        OCC NO =    1.0000000  ORB. ENERGY =   -0.499946
  0.39186920D-01  0.72303046D-01  0.11734569D+00  0.15452529D+00  0.12836343D+00
  0.34646096D-01 -0.44085263D-17 -0.75327119D-17  0.10825127D-05 -0.79384332D-17
  0.23077115D-16 -0.11192844D-05  0.84775643D-17 -0.53789094D-17  0.89334794D-06
  0.16769247D-06  0.16769247D-06 -0.33538494D-06  0.97208451D-16  0.86375069D-16
  0.19834550D-16 -0.10546077D-06 -0.10546077D-06  0.21092154D-06 -0.24711043D-16
 -0.19553000D-16 -0.13893266D-16  0.18017377D-19  0.23989190D-20  0.35948277D-07
  0.18016975D-19  0.23822406D-20 -0.53922415D-07 -0.72069105D-19 -0.95789976D-20
 -0.53922415D-07 -0.41959406D-19 -0.61629583D-05 -0.11371158D-04 -0.18455050D-04
  0.73016395D-04 -0.13696401D-03  0.11750215D-03 -0.67664081D-15 -0.43493340D-15
 -0.13516166D-03  0.16525849D-15  0.10753321D-15  0.15775789D-03 -0.15174924D-16
 -0.80940206D-17 -0.93515875D-04  0.19568709D-04  0.19568709D-04 -0.39137418D-04
 -0.40330342D-16  0.45932080D-15  0.11370697D-15 -0.10562271D-04 -0.10562271D-04
  0.21124542D-04  0.22289366D-16 -0.53005096D-16 -0.30966425D-16 -0.27853827D-18
 -0.10737484D-19 -0.25377848D-05  0.41648596D-18  0.21841952D-18  0.38066772D-05
  0.41912884D-18 -0.18620707D-18  0.38066772D-05  0.74943092D-20
END DATA
 TOTAL ENERGY =       -0.499945852043 THE VIRIAL(-V/T)=   2.00001610
