 TITLE
GAUSSIAN              1 MOL ORBITALS     74 PRIMITIVES        2 NUCLEI
  H    1    (CENTRE  1)   0.00000000  0.00000000  0.00000000  CHARGE =  1.0
  H    2    (CENTRE  2)   0.00000000  0.00000000  4.91328792  CHARGE =  0.0
CENTRE ASSIGNMENTS    1  1  1  1  1  1  1  1  1  1  1  1  1  1  1  1  1  1  1  1
CENTRE ASSIGNMENTS    1  1  1  1  1  1  1  1  1  1  1  1  1  1  1  1  1  2  2  2
CENTRE ASSIGNMENTS    2  2  2  2  2  2  2  2  2  2  2  2  2  2  2  2  2  2  2  2
CENTRE ASSIGNMENTS    2  2  2  2  2  2  2  2  2  2  2  2  2  2
TYPE ASSIGNMENTS      1  1  1  1  1  1  2  3  4  2  3  4  2  3  4  5  6  7  8  9
TYPE ASSIGNMENTS     10  5  6  7  8  9 10 11 12 13 17 14 15 18 19 16 20  1  1  1
TYPE ASSIGNMENTS      1  1  1  2  3  4  2  3  4  2  3  4  5  6  7  8  9 10  5  6
TYPE ASSIGNMENTS      7  8  9 10 11 12 13 17 14 15 18 19 16 20
EXPONENTS  0.8264000D+02 0.1241000D+02 0.2824000D+01 0.7977000D+00 0.2581000D+00
EXPONENTS  0.8989000D-01 0.2292000D+01 0.2292000D+01 0.2292000D+01 0.8380000D+00
EXPONENTS  0.8380000D+00 0.8380000D+00 0.2920000D+00 0.2920000D+00 0.2920000D+00
EXPONENTS  0.2062000D+01 0.2062000D+01 0.2062000D+01 0.2062000D+01 0.2062000D+01
EXPONENTS  0.2062000D+01 0.6620000D+00 0.6620000D+00 0.6620000D+00 0.6620000D+00
EXPONENTS  0.6620000D+00 0.6620000D+00 0.1397000D+01 0.1397000D+01 0.1397000D+01
EXPONENTS  0.1397000D+01 0.1397000D+01 0.1397000D+01 0.1397000D+01 0.1397000D+01
EXPONENTS  0.1397000D+01 0.1397000D+01 0.8264000D+02 0.1241000D+02 0.2824000D+01
EXPONENTS  0.7977000D+00 0.2581000D+00 0.8989000D-01 0.2292000D+01 0.2292000D+01
EXPONENTS  0.2292000D+01 0.8380000D+00 0.8380000D+00 0.8380000D+00 0.2920000D+00
EXPONENTS  0.2920000D+00 0.2920000D+00 0.2062000D+01 0.2062000D+01 0.2062000D+01
EXPONENTS  0.2062000D+01 0.2062000D+01 0.2062000D+01 0.6620000D+00 0.6620000D+00
EXPONENTS  0.6620000D+00 0.6620000D+00 0.6620000D+00 0.6620000D+00 0.1397000D+01
EXPONENTS  0.1397000D+01 0.1397000D+01 0.1397000D+01 0.1397000D+01 0.1397000D+01
EXPONENTS  0.1397000D+01 0.1397000D+01 0.1397000D+01 0.1397000D+01
MO    1     MO 0.0        OCC NO =    1.0000000  ORB. ENERGY =   -0.499946
  0.39188971D-01  0.72306831D-01  0.11735183D+00  0.15449874D+00  0.12841129D+00
  0.34595388D-01  0.62038190D-17 -0.36660382D-16 -0.46635303D-04 -0.27676082D-16
 -0.11681926D-16  0.57654369D-04  0.27799880D-17 -0.11477350D-16 -0.38329681D-04
 -0.51369287D-05 -0.51369287D-05  0.10273857D-04  0.77472873D-16  0.49453652D-17
 -0.85990183D-17  0.34055481D-05  0.34055481D-05 -0.68110961D-05 -0.23903803D-17
 -0.50054788D-17  0.57475585D-17  0.90550953D-18  0.27007733D-18 -0.56078804D-06
  0.90377975D-18  0.26981281D-18  0.84118206D-06 -0.36203084D-17 -0.10800448D-17
  0.84118206D-06 -0.40125604D-19 -0.15119936D-04 -0.27897508D-04 -0.45276824D-04
  0.11920387D-03 -0.30769216D-03  0.18411967D-03  0.40564825D-15  0.19764821D-15
  0.24704770D-03 -0.81352112D-16 -0.68493947D-16 -0.23829502D-03  0.41716883D-17
  0.95557326D-17  0.59450448D-04  0.12091452D-03  0.12091452D-03 -0.24182903D-03
 -0.62532772D-15  0.12536526D-15  0.19096755D-15 -0.10483782D-03 -0.10483782D-03
  0.20967563D-03  0.69928578D-16 -0.15075003D-16 -0.15877395D-16 -0.16107312D-17
 -0.28701885D-17 -0.74333392D-04  0.45843529D-17  0.80267973D-17  0.11150009D-03
  0.24784067D-18  0.58376814D-18  0.11150009D-03 -0.35046368D-18
END DATA
 TOTAL ENERGY =       -0.499946132143 THE VIRIAL(-V/T)=   2.00003450
