 TITLE
GAUSSIAN              1 MOL ORBITALS     74 PRIMITIVES        2 NUCLEI
  H    1    (CENTRE  1)   0.00000000  0.00000000  0.00000000  CHARGE =  1.0
  H    2    (CENTRE  2)   0.00000000  0.00000000 10.39349369  CHARGE =  0.0
CENTRE ASSIGNMENTS    1  1  1  1  1  1  1  1  1  1  1  1  1  1  1  1  1  1  1  1
CENTRE ASSIGNMENTS    1  1  1  1  1  1  1  1  1  1  1  1  1  1  1  1  1  2  2  2
CENTRE ASSIGNMENTS    2  2  2  2  2  2  2  2  2  2  2  2  2  2  2  2  2  2  2  2
CENTRE ASSIGNMENTS    2  2  2  2  2  2  2  2  2  2  2  2  2  2
TYPE ASSIGNMENTS      1  1  1  1  1  1  2  3  4  2  3  4  2  3  4  5  6  7  8  9
TYPE ASSIGNMENTS     10  5  6  7  8  9 10 11 12 13 17 14 15 18 19 16 20  1  1  1
TYPE ASSIGNMENTS      1  1  1  2  3  4  2  3  4  2  3  4  5  6  7  8  9 10  5  6
TYPE ASSIGNMENTS      7  8  9 10 11 12 13 17 14 15 18 19 16 20
EXPONENTS  0.8264000D+02 0.1241000D+02 0.2824000D+01 0.7977000D+00 0.2581000D+00
EXPONENTS  0.8989000D-01 0.2292000D+01 0.2292000D+01 0.2292000D+01 0.8380000D+00
EXPONENTS  0.8380000D+00 0.8380000D+00 0.2920000D+00 0.2920000D+00 0.2920000D+00
EXPONENTS  0.2062000D+01 0.2062000D+01 0.2062000D+01 0.2062000D+01 0.2062000D+01
EXPONENTS  0.2062000D+01 0.6620000D+00 0.6620000D+00 0.6620000D+00 0.6620000D+00
EXPONENTS  0.6620000D+00 0.6620000D+00 0.1397000D+01 0.1397000D+01 0.1397000D+01
EXPONENTS  0.1397000D+01 0.1397000D+01 0.1397000D+01 0.1397000D+01 0.1397000D+01
EXPONENTS  0.1397000D+01 0.1397000D+01 0.8264000D+02 0.1241000D+02 0.2824000D+01
EXPONENTS  0.7977000D+00 0.2581000D+00 0.8989000D-01 0.2292000D+01 0.2292000D+01
EXPONENTS  0.2292000D+01 0.8380000D+00 0.8380000D+00 0.8380000D+00 0.2920000D+00
EXPONENTS  0.2920000D+00 0.2920000D+00 0.2062000D+01 0.2062000D+01 0.2062000D+01
EXPONENTS  0.2062000D+01 0.2062000D+01 0.2062000D+01 0.6620000D+00 0.6620000D+00
EXPONENTS  0.6620000D+00 0.6620000D+00 0.6620000D+00 0.6620000D+00 0.1397000D+01
EXPONENTS  0.1397000D+01 0.1397000D+01 0.1397000D+01 0.1397000D+01 0.1397000D+01
EXPONENTS  0.1397000D+01 0.1397000D+01 0.1397000D+01 0.1397000D+01
MO    1     MO 0.0        OCC NO =    1.0000000  ORB. ENERGY =   -0.499946
  0.39186794D-01  0.72302812D-01  0.11734531D+00  0.15452795D+00  0.12836064D+00
  0.34647698D-01  0.15544587D-16 -0.41195169D-17  0.46496330D-06 -0.13630955D-16
  0.20031463D-16 -0.48863822D-06  0.24378884D-17 -0.74674161D-17  0.34050549D-06
  0.57781876D-07  0.57781876D-07 -0.11556375D-06 -0.16209997D-16 -0.33812653D-17
  0.63409434D-16 -0.34320860D-07 -0.34320860D-07  0.68641720D-07  0.97593115D-18
  0.74307116D-17 -0.64259025D-17 -0.46870887D-21  0.13584481D-20  0.11514374D-07
 -0.46266443D-21  0.13708838D-20 -0.17271560D-07  0.18687911D-20 -0.54462280D-20
 -0.17271560D-07 -0.23902976D-21 -0.80499645D-05 -0.14852837D-04 -0.24105712D-04
  0.91038966D-04 -0.14564983D-03  0.96472115D-04 -0.23879190D-16 -0.84291070D-16
 -0.91227634D-04  0.29318327D-16  0.45982885D-16  0.10308467D-03 -0.54403098D-17
 -0.71799133D-17 -0.55237783D-04  0.11409258D-04  0.11409258D-04 -0.22818516D-04
  0.66782220D-16 -0.16530174D-15 -0.14201339D-15 -0.58879737D-05 -0.58879737D-05
  0.11775947D-04 -0.63354222D-17  0.23832297D-16  0.90590840D-17 -0.41473318D-20
 -0.72705592D-20 -0.17537000D-05  0.32059159D-18  0.12352757D-18  0.26305501D-05
 -0.30814960D-18 -0.10171590D-18  0.26305501D-05  0.20991197D-18
END DATA
 TOTAL ENERGY =       -0.499945720762 THE VIRIAL(-V/T)=   2.00000829
