 TITLE
GAUSSIAN              1 MOL ORBITALS     74 PRIMITIVES        2 NUCLEI
  H    1    (CENTRE  1)   0.00000000  0.00000000  0.00000000  CHARGE =  1.0
  H    2    (CENTRE  2)   0.00000000  0.00000000 11.14938413  CHARGE =  0.0
CENTRE ASSIGNMENTS    1  1  1  1  1  1  1  1  1  1  1  1  1  1  1  1  1  1  1  1
CENTRE ASSIGNMENTS    1  1  1  1  1  1  1  1  1  1  1  1  1  1  1  1  1  2  2  2
CENTRE ASSIGNMENTS    2  2  2  2  2  2  2  2  2  2  2  2  2  2  2  2  2  2  2  2
CENTRE ASSIGNMENTS    2  2  2  2  2  2  2  2  2  2  2  2  2  2
TYPE ASSIGNMENTS      1  1  1  1  1  1  2  3  4  2  3  4  2  3  4  5  6  7  8  9
TYPE ASSIGNMENTS     10  5  6  7  8  9 10 11 12 13 17 14 15 18 19 16 20  1  1  1
TYPE ASSIGNMENTS      1  1  1  2  3  4  2  3  4  2  3  4  5  6  7  8  9 10  5  6
TYPE ASSIGNMENTS      7  8  9 10 11 12 13 17 14 15 18 19 16 20
EXPONENTS  0.8264000D+02 0.1241000D+02 0.2824000D+01 0.7977000D+00 0.2581000D+00
EXPONENTS  0.8989000D-01 0.2292000D+01 0.2292000D+01 0.2292000D+01 0.8380000D+00
EXPONENTS  0.8380000D+00 0.8380000D+00 0.2920000D+00 0.2920000D+00 0.2920000D+00
EXPONENTS  0.2062000D+01 0.2062000D+01 0.2062000D+01 0.2062000D+01 0.2062000D+01
EXPONENTS  0.2062000D+01 0.6620000D+00 0.6620000D+00 0.6620000D+00 0.6620000D+00
EXPONENTS  0.6620000D+00 0.6620000D+00 0.1397000D+01 0.1397000D+01 0.1397000D+01
EXPONENTS  0.1397000D+01 0.1397000D+01 0.1397000D+01 0.1397000D+01 0.1397000D+01
EXPONENTS  0.1397000D+01 0.1397000D+01 0.8264000D+02 0.1241000D+02 0.2824000D+01
EXPONENTS  0.7977000D+00 0.2581000D+00 0.8989000D-01 0.2292000D+01 0.2292000D+01
EXPONENTS  0.2292000D+01 0.8380000D+00 0.8380000D+00 0.8380000D+00 0.2920000D+00
EXPONENTS  0.2920000D+00 0.2920000D+00 0.2062000D+01 0.2062000D+01 0.2062000D+01
EXPONENTS  0.2062000D+01 0.2062000D+01 0.2062000D+01 0.6620000D+00 0.6620000D+00
EXPONENTS  0.6620000D+00 0.6620000D+00 0.6620000D+00 0.6620000D+00 0.1397000D+01
EXPONENTS  0.1397000D+01 0.1397000D+01 0.1397000D+01 0.1397000D+01 0.1397000D+01
EXPONENTS  0.1397000D+01 0.1397000D+01 0.1397000D+01 0.1397000D+01
MO    1     MO 0.0        OCC NO =    1.0000000  ORB. ENERGY =   -0.499946
  0.39186783D-01  0.72302793D-01  0.11734528D+00  0.15452868D+00  0.12836008D+00
  0.34648058D-01  0.84944468D-17 -0.32976861D-16  0.16841757D-06  0.89010809D-17
 -0.24322368D-17 -0.17755444D-06  0.58978962D-17  0.12496353D-17  0.11620169D-06
  0.17750881D-07  0.17750881D-07 -0.35501763D-07 -0.90342145D-17 -0.13686329D-16
  0.25826979D-16 -0.10229103D-07 -0.10229103D-07  0.20458206D-07  0.42794598D-17
  0.69208718D-17 -0.85407349D-17  0.27714009D-21 -0.58244089D-21  0.33508190D-08
  0.27897315D-21 -0.58439304D-21 -0.50262285D-08 -0.11103934D-20  0.23317157D-20
 -0.50262285D-08  0.65805314D-22 -0.73481356D-05 -0.13557906D-04 -0.22004077D-04
  0.80936600D-04 -0.12033046D-03  0.71381771D-04  0.21048756D-15  0.14434994D-15
 -0.50159413D-04 -0.60143697D-16 -0.33407959D-16  0.55803048D-04  0.87797164D-17
  0.52122002D-17 -0.28550082D-04  0.53945292D-05  0.53945292D-05 -0.10789058D-04
 -0.31581225D-16  0.69122630D-16 -0.61961308D-16 -0.27255359D-05 -0.27255359D-05
  0.54510717D-05  0.19082889D-17 -0.41100482D-17  0.80721971D-18  0.11438244D-20
 -0.50060846D-19 -0.84110854D-06 -0.19438836D-19  0.69096596D-19  0.12616628D-05
  0.16007362D-19  0.81085941D-19  0.12616628D-05 -0.10515419D-19
END DATA
 TOTAL ENERGY =       -0.499945643566 THE VIRIAL(-V/T)=   2.00000455
