 TITLE
GAUSSIAN              1 MOL ORBITALS     74 PRIMITIVES        2 NUCLEI
  H    1    (CENTRE  1)   0.00000000  0.00000000  0.00000000  CHARGE =  1.0
  H    2    (CENTRE  2)   0.00000000  0.00000000  0.56691784  CHARGE =  0.0
CENTRE ASSIGNMENTS    1  1  1  1  1  1  1  1  1  1  1  1  1  1  1  1  1  1  1  1
CENTRE ASSIGNMENTS    1  1  1  1  1  1  1  1  1  1  1  1  1  1  1  1  1  2  2  2
CENTRE ASSIGNMENTS    2  2  2  2  2  2  2  2  2  2  2  2  2  2  2  2  2  2  2  2
CENTRE ASSIGNMENTS    2  2  2  2  2  2  2  2  2  2  2  2  2  2
TYPE ASSIGNMENTS      1  1  1  1  1  1  2  3  4  2  3  4  2  3  4  5  6  7  8  9
TYPE ASSIGNMENTS     10  5  6  7  8  9 10 11 12 13 17 14 15 18 19 16 20  1  1  1
TYPE ASSIGNMENTS      1  1  1  2  3  4  2  3  4  2  3  4  5  6  7  8  9 10  5  6
TYPE ASSIGNMENTS      7  8  9 10 11 12 13 17 14 15 18 19 16 20
EXPONENTS  0.8264000D+02 0.1241000D+02 0.2824000D+01 0.7977000D+00 0.2581000D+00
EXPONENTS  0.8989000D-01 0.2292000D+01 0.2292000D+01 0.2292000D+01 0.8380000D+00
EXPONENTS  0.8380000D+00 0.8380000D+00 0.2920000D+00 0.2920000D+00 0.2920000D+00
EXPONENTS  0.2062000D+01 0.2062000D+01 0.2062000D+01 0.2062000D+01 0.2062000D+01
EXPONENTS  0.2062000D+01 0.6620000D+00 0.6620000D+00 0.6620000D+00 0.6620000D+00
EXPONENTS  0.6620000D+00 0.6620000D+00 0.1397000D+01 0.1397000D+01 0.1397000D+01
EXPONENTS  0.1397000D+01 0.1397000D+01 0.1397000D+01 0.1397000D+01 0.1397000D+01
EXPONENTS  0.1397000D+01 0.1397000D+01 0.8264000D+02 0.1241000D+02 0.2824000D+01
EXPONENTS  0.7977000D+00 0.2581000D+00 0.8989000D-01 0.2292000D+01 0.2292000D+01
EXPONENTS  0.2292000D+01 0.8380000D+00 0.8380000D+00 0.8380000D+00 0.2920000D+00
EXPONENTS  0.2920000D+00 0.2920000D+00 0.2062000D+01 0.2062000D+01 0.2062000D+01
EXPONENTS  0.2062000D+01 0.2062000D+01 0.2062000D+01 0.6620000D+00 0.6620000D+00
EXPONENTS  0.6620000D+00 0.6620000D+00 0.6620000D+00 0.6620000D+00 0.1397000D+01
EXPONENTS  0.1397000D+01 0.1397000D+01 0.1397000D+01 0.1397000D+01 0.1397000D+01
EXPONENTS  0.1397000D+01 0.1397000D+01 0.1397000D+01 0.1397000D+01
MO    1     MO 0.0        OCC NO =    1.0000000  ORB. ENERGY =   -0.499946
  0.39291165D-01  0.72495386D-01  0.11765785D+00  0.17528033D+00  0.12649512D+00
  0.34794783D-01 -0.68768756D-14  0.12724983D-13 -0.45939528D-03 -0.11182292D-13
  0.54311864D-14  0.97802228D-02 -0.20919937D-14  0.92525371D-15 -0.27424448D-03
 -0.17802222D-04 -0.17802222D-04  0.35604444D-04 -0.79742264D-14 -0.15136412D-13
  0.19567652D-13 -0.34456480D-03 -0.34456480D-03  0.68912961D-03 -0.97218011D-15
 -0.41627227D-14  0.19271076D-14  0.92469088D-15 -0.11082257D-14 -0.87919095D-04
  0.14225799D-14 -0.67483615D-15  0.13187864D-03 -0.41966526D-14  0.39995131D-14
  0.13187864D-03 -0.33501970D-14  0.44623724D-04  0.82334390D-04  0.13362626D-03
 -0.20583841D-01  0.17709006D-02 -0.13086834D-03  0.84091805D-14 -0.13289694D-13
  0.22943607D-03  0.11113695D-13 -0.58741062D-14  0.10815232D-01  0.25601506D-14
 -0.60909312D-15 -0.26920503D-03  0.75087881D-03  0.75087881D-03 -0.15017576D-02
  0.65726416D-14 -0.11304321D-13  0.17630393D-13  0.42310060D-03  0.42310060D-03
 -0.84620120D-03  0.55498038D-15 -0.36687240D-14  0.11150119D-14 -0.62337314D-15
  0.46534261D-15  0.11840365D-03 -0.24040968D-15  0.82149721D-15 -0.17760547D-03
  0.21105291D-14 -0.22175250D-14 -0.17760547D-03 -0.50571528D-14
END DATA
 TOTAL ENERGY =       -0.499945702086 THE VIRIAL(-V/T)=   1.99999936
