 TITLE
GAUSSIAN              1 MOL ORBITALS     74 PRIMITIVES        2 NUCLEI
  H    1    (CENTRE  1)   0.00000000  0.00000000  0.00000000  CHARGE =  1.0
  H    2    (CENTRE  2)   0.00000000  0.00000000  6.80301405  CHARGE =  0.0
CENTRE ASSIGNMENTS    1  1  1  1  1  1  1  1  1  1  1  1  1  1  1  1  1  1  1  1
CENTRE ASSIGNMENTS    1  1  1  1  1  1  1  1  1  1  1  1  1  1  1  1  1  2  2  2
CENTRE ASSIGNMENTS    2  2  2  2  2  2  2  2  2  2  2  2  2  2  2  2  2  2  2  2
CENTRE ASSIGNMENTS    2  2  2  2  2  2  2  2  2  2  2  2  2  2
TYPE ASSIGNMENTS      1  1  1  1  1  1  2  3  4  2  3  4  2  3  4  5  6  7  8  9
TYPE ASSIGNMENTS     10  5  6  7  8  9 10 11 12 13 17 14 15 18 19 16 20  1  1  1
TYPE ASSIGNMENTS      1  1  1  2  3  4  2  3  4  2  3  4  5  6  7  8  9 10  5  6
TYPE ASSIGNMENTS      7  8  9 10 11 12 13 17 14 15 18 19 16 20
EXPONENTS  0.8264000D+02 0.1241000D+02 0.2824000D+01 0.7977000D+00 0.2581000D+00
EXPONENTS  0.8989000D-01 0.2292000D+01 0.2292000D+01 0.2292000D+01 0.8380000D+00
EXPONENTS  0.8380000D+00 0.8380000D+00 0.2920000D+00 0.2920000D+00 0.2920000D+00
EXPONENTS  0.2062000D+01 0.2062000D+01 0.2062000D+01 0.2062000D+01 0.2062000D+01
EXPONENTS  0.2062000D+01 0.6620000D+00 0.6620000D+00 0.6620000D+00 0.6620000D+00
EXPONENTS  0.6620000D+00 0.6620000D+00 0.1397000D+01 0.1397000D+01 0.1397000D+01
EXPONENTS  0.1397000D+01 0.1397000D+01 0.1397000D+01 0.1397000D+01 0.1397000D+01
EXPONENTS  0.1397000D+01 0.1397000D+01 0.8264000D+02 0.1241000D+02 0.2824000D+01
EXPONENTS  0.7977000D+00 0.2581000D+00 0.8989000D-01 0.2292000D+01 0.2292000D+01
EXPONENTS  0.2292000D+01 0.8380000D+00 0.8380000D+00 0.8380000D+00 0.2920000D+00
EXPONENTS  0.2920000D+00 0.2920000D+00 0.2062000D+01 0.2062000D+01 0.2062000D+01
EXPONENTS  0.2062000D+01 0.2062000D+01 0.2062000D+01 0.6620000D+00 0.6620000D+00
EXPONENTS  0.6620000D+00 0.6620000D+00 0.6620000D+00 0.6620000D+00 0.1397000D+01
EXPONENTS  0.1397000D+01 0.1397000D+01 0.1397000D+01 0.1397000D+01 0.1397000D+01
EXPONENTS  0.1397000D+01 0.1397000D+01 0.1397000D+01 0.1397000D+01
MO    1     MO 0.0        OCC NO =    1.0000000  ORB. ENERGY =   -0.499946
  0.39188325D-01  0.72305639D-01  0.11734990D+00  0.15450638D+00  0.12839332D+00
  0.34626201D-01 -0.22375731D-16 -0.53331426D-16 -0.15698437D-04  0.12239277D-16
  0.28954955D-16  0.18363152D-04 -0.61701437D-18 -0.12317033D-16 -0.78692487D-05
 -0.16306494D-05 -0.16306494D-05  0.32612988D-05 -0.15844975D-15 -0.28849036D-16
  0.21035767D-17  0.63000851D-06  0.63000851D-06 -0.12600170D-05  0.31224508D-16
 -0.13233640D-17 -0.92105101D-17 -0.22307552D-20  0.10284551D-19 -0.21977881D-06
 -0.36327794D-20  0.10772090D-19  0.32966821D-06  0.10325045D-19 -0.41625742D-19
  0.32966821D-06  0.39559566D-21 -0.13493385D-04 -0.24896390D-04 -0.40406098D-04
  0.15037789D-03 -0.17014521D-03  0.15122858D-03 -0.21982673D-15  0.55014037D-15
  0.10223422D-03  0.49773241D-16 -0.15403730D-15 -0.14431235D-03 -0.38633665D-17
  0.16897024D-16  0.11212876D-03 -0.97828545D-04 -0.97828545D-04  0.19565709D-03
 -0.91049607D-16  0.11438481D-15 -0.56355512D-16  0.56960174D-04  0.56960174D-04
 -0.11392035D-03 -0.10671154D-16  0.20272315D-18  0.11070249D-16  0.66024577D-19
 -0.68744876D-19  0.25786584D-04 -0.31901607D-18 -0.37244230D-19 -0.38679876D-04
  0.12094234D-18  0.24347886D-18 -0.38679876D-04  0.68467124D-18
END DATA
 TOTAL ENERGY =       -0.499946087410 THE VIRIAL(-V/T)=   2.00003065
