 TITLE
GAUSSIAN              1 MOL ORBITALS     74 PRIMITIVES        2 NUCLEI
  H    1    (CENTRE  1)   0.00000000  0.00000000  0.00000000  CHARGE =  1.0
  H    2    (CENTRE  2)   0.00000000  0.00000000  1.32280829  CHARGE =  0.0
CENTRE ASSIGNMENTS    1  1  1  1  1  1  1  1  1  1  1  1  1  1  1  1  1  1  1  1
CENTRE ASSIGNMENTS    1  1  1  1  1  1  1  1  1  1  1  1  1  1  1  1  1  2  2  2
CENTRE ASSIGNMENTS    2  2  2  2  2  2  2  2  2  2  2  2  2  2  2  2  2  2  2  2
CENTRE ASSIGNMENTS    2  2  2  2  2  2  2  2  2  2  2  2  2  2
TYPE ASSIGNMENTS      1  1  1  1  1  1  2  3  4  2  3  4  2  3  4  5  6  7  8  9
TYPE ASSIGNMENTS     10  5  6  7  8  9 10 11 12 13 17 14 15 18 19 16 20  1  1  1
TYPE ASSIGNMENTS      1  1  1  2  3  4  2  3  4  2  3  4  5  6  7  8  9 10  5  6
TYPE ASSIGNMENTS      7  8  9 10 11 12 13 17 14 15 18 19 16 20
EXPONENTS  0.8264000D+02 0.1241000D+02 0.2824000D+01 0.7977000D+00 0.2581000D+00
EXPONENTS  0.8989000D-01 0.2292000D+01 0.2292000D+01 0.2292000D+01 0.8380000D+00
EXPONENTS  0.8380000D+00 0.8380000D+00 0.2920000D+00 0.2920000D+00 0.2920000D+00
EXPONENTS  0.2062000D+01 0.2062000D+01 0.2062000D+01 0.2062000D+01 0.2062000D+01
EXPONENTS  0.2062000D+01 0.6620000D+00 0.6620000D+00 0.6620000D+00 0.6620000D+00
EXPONENTS  0.6620000D+00 0.6620000D+00 0.1397000D+01 0.1397000D+01 0.1397000D+01
EXPONENTS  0.1397000D+01 0.1397000D+01 0.1397000D+01 0.1397000D+01 0.1397000D+01
EXPONENTS  0.1397000D+01 0.1397000D+01 0.8264000D+02 0.1241000D+02 0.2824000D+01
EXPONENTS  0.7977000D+00 0.2581000D+00 0.8989000D-01 0.2292000D+01 0.2292000D+01
EXPONENTS  0.2292000D+01 0.8380000D+00 0.8380000D+00 0.8380000D+00 0.2920000D+00
EXPONENTS  0.2920000D+00 0.2920000D+00 0.2062000D+01 0.2062000D+01 0.2062000D+01
EXPONENTS  0.2062000D+01 0.2062000D+01 0.2062000D+01 0.6620000D+00 0.6620000D+00
EXPONENTS  0.6620000D+00 0.6620000D+00 0.6620000D+00 0.6620000D+00 0.1397000D+01
EXPONENTS  0.1397000D+01 0.1397000D+01 0.1397000D+01 0.1397000D+01 0.1397000D+01
EXPONENTS  0.1397000D+01 0.1397000D+01 0.1397000D+01 0.1397000D+01
MO    1     MO 0.0        OCC NO =    1.0000000  ORB. ENERGY =   -0.499946
  0.39234672D-01  0.72391153D-01  0.11748868D+00  0.15204869D+00  0.12778545D+00
  0.34692859D-01  0.21284555D-15 -0.99338625D-16 -0.14605281D-02 -0.23622105D-15
  0.40742736D-15 -0.30646252D-02  0.75215302D-16  0.34648383D-15 -0.28617151D-03
  0.12699604D-02  0.12699604D-02 -0.25399208D-02 -0.22102012D-15 -0.27897221D-15
  0.29863602D-15  0.36347320D-03  0.36347320D-03 -0.72694641D-03 -0.77949330D-19
 -0.12782007D-15  0.65361720D-15  0.26547500D-15 -0.66095339D-15 -0.74167004D-03
 -0.14473979D-15  0.71956275D-15  0.11125051D-02 -0.65168522D-15  0.12632974D-14
  0.11125051D-02 -0.17450140D-15 -0.13181681D-03 -0.24321270D-03 -0.39472696D-03
  0.27237403D-02  0.57149472D-03 -0.53498876D-04  0.24641705D-15  0.65163124D-16
 -0.58326917D-03  0.84813375D-16 -0.66121943D-15 -0.34212580D-02  0.91862851D-16
 -0.43984624D-16 -0.96909160D-04 -0.17822213D-02 -0.17822213D-02  0.35644426D-02
  0.20983754D-15 -0.29949603D-15  0.76221376D-15 -0.23482558D-03 -0.23482558D-03
  0.46965116D-03 -0.22948618D-16 -0.17252161D-15  0.55722056D-15 -0.44744565D-16
  0.21911575D-15 -0.12530642D-02  0.31268951D-16 -0.42949656D-16  0.18795963D-02
  0.10296474D-15 -0.61439758D-15  0.18795963D-02 -0.47594161D-16
END DATA
 TOTAL ENERGY =       -0.499946279903 THE VIRIAL(-V/T)=   1.99999470
