 TITLE
GAUSSIAN              1 MOL ORBITALS     74 PRIMITIVES        2 NUCLEI
  H    1    (CENTRE  1)   0.00000000  0.00000000  0.00000000  CHARGE =  1.0
  H    2    (CENTRE  2)   0.00000000  0.00000000  8.69274017  CHARGE =  0.0
CENTRE ASSIGNMENTS    1  1  1  1  1  1  1  1  1  1  1  1  1  1  1  1  1  1  1  1
CENTRE ASSIGNMENTS    1  1  1  1  1  1  1  1  1  1  1  1  1  1  1  1  1  2  2  2
CENTRE ASSIGNMENTS    2  2  2  2  2  2  2  2  2  2  2  2  2  2  2  2  2  2  2  2
CENTRE ASSIGNMENTS    2  2  2  2  2  2  2  2  2  2  2  2  2  2
TYPE ASSIGNMENTS      1  1  1  1  1  1  2  3  4  2  3  4  2  3  4  5  6  7  8  9
TYPE ASSIGNMENTS     10  5  6  7  8  9 10 11 12 13 17 14 15 18 19 16 20  1  1  1
TYPE ASSIGNMENTS      1  1  1  2  3  4  2  3  4  2  3  4  5  6  7  8  9 10  5  6
TYPE ASSIGNMENTS      7  8  9 10 11 12 13 17 14 15 18 19 16 20
EXPONENTS  0.8264000D+02 0.1241000D+02 0.2824000D+01 0.7977000D+00 0.2581000D+00
EXPONENTS  0.8989000D-01 0.2292000D+01 0.2292000D+01 0.2292000D+01 0.8380000D+00
EXPONENTS  0.8380000D+00 0.8380000D+00 0.2920000D+00 0.2920000D+00 0.2920000D+00
EXPONENTS  0.2062000D+01 0.2062000D+01 0.2062000D+01 0.2062000D+01 0.2062000D+01
EXPONENTS  0.2062000D+01 0.6620000D+00 0.6620000D+00 0.6620000D+00 0.6620000D+00
EXPONENTS  0.6620000D+00 0.6620000D+00 0.1397000D+01 0.1397000D+01 0.1397000D+01
EXPONENTS  0.1397000D+01 0.1397000D+01 0.1397000D+01 0.1397000D+01 0.1397000D+01
EXPONENTS  0.1397000D+01 0.1397000D+01 0.8264000D+02 0.1241000D+02 0.2824000D+01
EXPONENTS  0.7977000D+00 0.2581000D+00 0.8989000D-01 0.2292000D+01 0.2292000D+01
EXPONENTS  0.2292000D+01 0.8380000D+00 0.8380000D+00 0.8380000D+00 0.2920000D+00
EXPONENTS  0.2920000D+00 0.2920000D+00 0.2062000D+01 0.2062000D+01 0.2062000D+01
EXPONENTS  0.2062000D+01 0.2062000D+01 0.2062000D+01 0.6620000D+00 0.6620000D+00
EXPONENTS  0.6620000D+00 0.6620000D+00 0.6620000D+00 0.6620000D+00 0.1397000D+01
EXPONENTS  0.1397000D+01 0.1397000D+01 0.1397000D+01 0.1397000D+01 0.1397000D+01
EXPONENTS  0.1397000D+01 0.1397000D+01 0.1397000D+01 0.1397000D+01
MO    1     MO 0.0        OCC NO =    1.0000000  ORB. ENERGY =   -0.499946
  0.39187215D-01  0.72303590D-01  0.11734657D+00  0.15452089D+00  0.12836884D+00
  0.34643064D-01 -0.18892709D-16  0.27288463D-16  0.14108067D-05  0.79462698D-17
 -0.12276822D-16 -0.13905322D-05 -0.12286213D-16 -0.23930650D-17  0.13963001D-05
  0.27444898D-06  0.27444898D-06 -0.54889796D-06 -0.22673058D-17 -0.13126437D-15
  0.74728194D-16 -0.18700214D-06 -0.18700214D-06  0.37400427D-06 -0.36165082D-17
  0.19193116D-16  0.22339510D-17 -0.55263071D-21  0.72367771D-20  0.63665376D-07
 -0.58467411D-21  0.72516641D-20 -0.95498063D-07  0.22425662D-20 -0.28961995D-19
 -0.95498063D-07  0.79610846D-20 -0.40787538D-05 -0.75256316D-05 -0.12213876D-04
  0.47314183D-04 -0.99556423D-04  0.12162722D-03 -0.20790655D-15  0.72093482D-15
 -0.11046680D-03  0.46236405D-16 -0.23123614D-15  0.13660252D-03 -0.12001787D-17
  0.29746236D-16 -0.97357278D-04  0.13619380D-04  0.13619380D-04 -0.27238760D-04
  0.49963712D-16 -0.53497045D-15  0.10621228D-14 -0.83361554D-05 -0.83361554D-05
  0.16672311D-04 -0.10496249D-16  0.37855328D-16 -0.67468881D-16 -0.20464752D-19
  0.25542583D-19  0.28415958D-06  0.26069293D-19 -0.20648986D-18 -0.42623937D-06
  0.35324963D-19  0.12986211D-18 -0.42623937D-06 -0.26556032D-18
END DATA
 TOTAL ENERGY =       -0.499945930461 THE VIRIAL(-V/T)=   2.00002335
