 TITLE
GAUSSIAN              1 MOL ORBITALS     74 PRIMITIVES        2 NUCLEI
  H    1    (CENTRE  1)   0.00000000  0.00000000  0.00000000  CHARGE =  1.0
  H    2    (CENTRE  2)   0.00000000  0.00000000  4.15739747  CHARGE =  0.0
CENTRE ASSIGNMENTS    1  1  1  1  1  1  1  1  1  1  1  1  1  1  1  1  1  1  1  1
CENTRE ASSIGNMENTS    1  1  1  1  1  1  1  1  1  1  1  1  1  1  1  1  1  2  2  2
CENTRE ASSIGNMENTS    2  2  2  2  2  2  2  2  2  2  2  2  2  2  2  2  2  2  2  2
CENTRE ASSIGNMENTS    2  2  2  2  2  2  2  2  2  2  2  2  2  2
TYPE ASSIGNMENTS      1  1  1  1  1  1  2  3  4  2  3  4  2  3  4  5  6  7  8  9
TYPE ASSIGNMENTS     10  5  6  7  8  9 10 11 12 13 17 14 15 18 19 16 20  1  1  1
TYPE ASSIGNMENTS      1  1  1  2  3  4  2  3  4  2  3  4  5  6  7  8  9 10  5  6
TYPE ASSIGNMENTS      7  8  9 10 11 12 13 17 14 15 18 19 16 20
EXPONENTS  0.8264000D+02 0.1241000D+02 0.2824000D+01 0.7977000D+00 0.2581000D+00
EXPONENTS  0.8989000D-01 0.2292000D+01 0.2292000D+01 0.2292000D+01 0.8380000D+00
EXPONENTS  0.8380000D+00 0.8380000D+00 0.2920000D+00 0.2920000D+00 0.2920000D+00
EXPONENTS  0.2062000D+01 0.2062000D+01 0.2062000D+01 0.2062000D+01 0.2062000D+01
EXPONENTS  0.2062000D+01 0.6620000D+00 0.6620000D+00 0.6620000D+00 0.6620000D+00
EXPONENTS  0.6620000D+00 0.6620000D+00 0.1397000D+01 0.1397000D+01 0.1397000D+01
EXPONENTS  0.1397000D+01 0.1397000D+01 0.1397000D+01 0.1397000D+01 0.1397000D+01
EXPONENTS  0.1397000D+01 0.1397000D+01 0.8264000D+02 0.1241000D+02 0.2824000D+01
EXPONENTS  0.7977000D+00 0.2581000D+00 0.8989000D-01 0.2292000D+01 0.2292000D+01
EXPONENTS  0.2292000D+01 0.8380000D+00 0.8380000D+00 0.8380000D+00 0.2920000D+00
EXPONENTS  0.2920000D+00 0.2920000D+00 0.2062000D+01 0.2062000D+01 0.2062000D+01
EXPONENTS  0.2062000D+01 0.2062000D+01 0.2062000D+01 0.6620000D+00 0.6620000D+00
EXPONENTS  0.6620000D+00 0.6620000D+00 0.6620000D+00 0.6620000D+00 0.1397000D+01
EXPONENTS  0.1397000D+01 0.1397000D+01 0.1397000D+01 0.1397000D+01 0.1397000D+01
EXPONENTS  0.1397000D+01 0.1397000D+01 0.1397000D+01 0.1397000D+01
MO    1     MO 0.0        OCC NO =    1.0000000  ORB. ENERGY =   -0.499946
  0.39190180D-01  0.72309061D-01  0.11735545D+00  0.15449001D+00  0.12841461D+00
  0.34583976D-01  0.13151106D-16 -0.46430170D-16 -0.24258966D-04 -0.10733062D-16
  0.23514189D-16  0.33811093D-04 -0.29363863D-16 -0.12142948D-15 -0.32431642D-04
  0.32360256D-05  0.32360256D-05 -0.64720512D-05  0.28428733D-16 -0.21030911D-15
 -0.50481385D-16 -0.15893538D-06 -0.15893538D-06  0.31787077D-06 -0.40548576D-17
 -0.19567765D-16 -0.74555369D-16 -0.28712557D-17  0.20612467D-17  0.14771600D-05
 -0.28712221D-17  0.20610140D-17 -0.22157401D-05  0.11484989D-16 -0.82447541D-17
 -0.22157401D-05  0.29890902D-16 -0.23526509D-04 -0.43408317D-04 -0.70450405D-04
  0.29816970D-03 -0.35759936D-03  0.17640194D-03 -0.33770003D-15 -0.10328768D-15
  0.17569578D-04  0.53705580D-16  0.11911828D-15 -0.17688108D-03 -0.15701001D-17
 -0.10434344D-15 -0.30768536D-04 -0.37875661D-04 -0.37875661D-04  0.75751322D-04
 -0.48026446D-15 -0.62553248D-15 -0.56252194D-15  0.21730028D-04  0.21730028D-04
 -0.43460056D-04  0.14854327D-16  0.75183232D-16  0.10004170D-15  0.65490024D-17
  0.63760776D-17  0.28824646D-03  0.66583789D-17  0.68753628D-17 -0.43236969D-03
 -0.26305386D-16 -0.26003596D-16 -0.43236969D-03  0.16397049D-15
END DATA
 TOTAL ENERGY =       -0.499946006454 THE VIRIAL(-V/T)=   2.00002731
