 TITLE
GAUSSIAN              1 MOL ORBITALS     74 PRIMITIVES        2 NUCLEI
  H    1    (CENTRE  1)   0.00000000  0.00000000  0.00000000  CHARGE =  1.0
  H    2    (CENTRE  2)   0.00000000  0.00000000  0.18897261  CHARGE =  0.0
CENTRE ASSIGNMENTS    1  1  1  1  1  1  1  1  1  1  1  1  1  1  1  1  1  1  1  1
CENTRE ASSIGNMENTS    1  1  1  1  1  1  1  1  1  1  1  1  1  1  1  1  1  2  2  2
CENTRE ASSIGNMENTS    2  2  2  2  2  2  2  2  2  2  2  2  2  2  2  2  2  2  2  2
CENTRE ASSIGNMENTS    2  2  2  2  2  2  2  2  2  2  2  2  2  2
TYPE ASSIGNMENTS      1  1  1  1  1  1  2  3  4  2  3  4  2  3  4  5  6  7  8  9
TYPE ASSIGNMENTS     10  5  6  7  8  9 10 11 12 13 17 14 15 18 19 16 20  1  1  1
TYPE ASSIGNMENTS      1  1  1  2  3  4  2  3  4  2  3  4  5  6  7  8  9 10  5  6
TYPE ASSIGNMENTS      7  8  9 10 11 12 13 17 14 15 18 19 16 20
EXPONENTS  0.8264000D+02 0.1241000D+02 0.2824000D+01 0.7977000D+00 0.2581000D+00
EXPONENTS  0.8989000D-01 0.2292000D+01 0.2292000D+01 0.2292000D+01 0.8380000D+00
EXPONENTS  0.8380000D+00 0.8380000D+00 0.2920000D+00 0.2920000D+00 0.2920000D+00
EXPONENTS  0.2062000D+01 0.2062000D+01 0.2062000D+01 0.2062000D+01 0.2062000D+01
EXPONENTS  0.2062000D+01 0.6620000D+00 0.6620000D+00 0.6620000D+00 0.6620000D+00
EXPONENTS  0.6620000D+00 0.6620000D+00 0.1397000D+01 0.1397000D+01 0.1397000D+01
EXPONENTS  0.1397000D+01 0.1397000D+01 0.1397000D+01 0.1397000D+01 0.1397000D+01
EXPONENTS  0.1397000D+01 0.1397000D+01 0.8264000D+02 0.1241000D+02 0.2824000D+01
EXPONENTS  0.7977000D+00 0.2581000D+00 0.8989000D-01 0.2292000D+01 0.2292000D+01
EXPONENTS  0.2292000D+01 0.8380000D+00 0.8380000D+00 0.8380000D+00 0.2920000D+00
EXPONENTS  0.2920000D+00 0.2920000D+00 0.2062000D+01 0.2062000D+01 0.2062000D+01
EXPONENTS  0.2062000D+01 0.2062000D+01 0.2062000D+01 0.6620000D+00 0.6620000D+00
EXPONENTS  0.6620000D+00 0.6620000D+00 0.6620000D+00 0.6620000D+00 0.1397000D+01
EXPONENTS  0.1397000D+01 0.1397000D+01 0.1397000D+01 0.1397000D+01 0.1397000D+01
EXPONENTS  0.1397000D+01 0.1397000D+01 0.1397000D+01 0.1397000D+01
MO    1     MO 0.0        OCC NO =    1.0000000  ORB. ENERGY =   -0.499946
  0.39298416D-01  0.72508765D-01  0.11767956D+00  0.49036131D-01  0.94041707D-01
  0.36098233D-01 -0.17689165D-12  0.71308634D-13 -0.25060731D-02 -0.95336258D-13
  0.41898312D-13 -0.15121142D-01 -0.68793299D-14  0.11589929D-14 -0.16715774D-02
  0.96296278D-03  0.96296278D-03 -0.19259256D-02  0.10822418D-13 -0.63363531D-13
  0.37522824D-13  0.20121787D-03  0.20121787D-03 -0.40243575D-03  0.14781199D-14
 -0.69305635D-14  0.46326956D-14  0.39793159D-15 -0.59422719D-15 -0.11225325D-03
  0.21239682D-15 -0.75505654D-15  0.16837988D-03 -0.14061916D-14  0.25377381D-14
  0.16837988D-03  0.27764768D-14  0.78725061D-04  0.14525412D-03  0.23574311D-03
  0.10504967D+00  0.34385883D-01 -0.14522360D-02  0.17410938D-12 -0.72124547D-13
  0.44780670D-02  0.95345741D-13 -0.41855424D-13 -0.17060553D-01  0.69075666D-14
 -0.10579997D-14 -0.26287157D-02 -0.16880791D-04 -0.16880791D-04  0.33761583D-04
 -0.11579360D-13 -0.93258062D-13  0.27345919D-13 -0.32882943D-03 -0.32882943D-03
  0.65765886D-03 -0.14310224D-14 -0.11747331D-13  0.31657207D-14 -0.16806579D-14
  0.17319195D-15 -0.89677473D-04 -0.14499313D-14  0.38027777D-15  0.13451621D-03
  0.64919051D-14 -0.89985361D-15  0.13451621D-03  0.16656088D-14
END DATA
 TOTAL ENERGY =       -0.499945695236 THE VIRIAL(-V/T)=   1.99999532
