 TITLE
GAUSSIAN              1 MOL ORBITALS     74 PRIMITIVES        2 NUCLEI
  H    1    (CENTRE  1)   0.00000000  0.00000000  0.00000000  CHARGE =  1.0
  H    2    (CENTRE  2)   0.00000000  0.00000000  0.94486306  CHARGE =  0.0
CENTRE ASSIGNMENTS    1  1  1  1  1  1  1  1  1  1  1  1  1  1  1  1  1  1  1  1
CENTRE ASSIGNMENTS    1  1  1  1  1  1  1  1  1  1  1  1  1  1  1  1  1  2  2  2
CENTRE ASSIGNMENTS    2  2  2  2  2  2  2  2  2  2  2  2  2  2  2  2  2  2  2  2
CENTRE ASSIGNMENTS    2  2  2  2  2  2  2  2  2  2  2  2  2  2
TYPE ASSIGNMENTS      1  1  1  1  1  1  2  3  4  2  3  4  2  3  4  5  6  7  8  9
TYPE ASSIGNMENTS     10  5  6  7  8  9 10 11 12 13 17 14 15 18 19 16 20  1  1  1
TYPE ASSIGNMENTS      1  1  1  2  3  4  2  3  4  2  3  4  5  6  7  8  9 10  5  6
TYPE ASSIGNMENTS      7  8  9 10 11 12 13 17 14 15 18 19 16 20
EXPONENTS  0.8264000D+02 0.1241000D+02 0.2824000D+01 0.7977000D+00 0.2581000D+00
EXPONENTS  0.8989000D-01 0.2292000D+01 0.2292000D+01 0.2292000D+01 0.8380000D+00
EXPONENTS  0.8380000D+00 0.8380000D+00 0.2920000D+00 0.2920000D+00 0.2920000D+00
EXPONENTS  0.2062000D+01 0.2062000D+01 0.2062000D+01 0.2062000D+01 0.2062000D+01
EXPONENTS  0.2062000D+01 0.6620000D+00 0.6620000D+00 0.6620000D+00 0.6620000D+00
EXPONENTS  0.6620000D+00 0.6620000D+00 0.1397000D+01 0.1397000D+01 0.1397000D+01
EXPONENTS  0.1397000D+01 0.1397000D+01 0.1397000D+01 0.1397000D+01 0.1397000D+01
EXPONENTS  0.1397000D+01 0.1397000D+01 0.8264000D+02 0.1241000D+02 0.2824000D+01
EXPONENTS  0.7977000D+00 0.2581000D+00 0.8989000D-01 0.2292000D+01 0.2292000D+01
EXPONENTS  0.2292000D+01 0.8380000D+00 0.8380000D+00 0.8380000D+00 0.2920000D+00
EXPONENTS  0.2920000D+00 0.2920000D+00 0.2062000D+01 0.2062000D+01 0.2062000D+01
EXPONENTS  0.2062000D+01 0.2062000D+01 0.2062000D+01 0.6620000D+00 0.6620000D+00
EXPONENTS  0.6620000D+00 0.6620000D+00 0.6620000D+00 0.6620000D+00 0.1397000D+01
EXPONENTS  0.1397000D+01 0.1397000D+01 0.1397000D+01 0.1397000D+01 0.1397000D+01
EXPONENTS  0.1397000D+01 0.1397000D+01 0.1397000D+01 0.1397000D+01
MO    1     MO 0.0        OCC NO =    1.0000000  ORB. ENERGY =   -0.499946
  0.39193382D-01  0.72314968D-01  0.11736504D+00  0.15358307D+00  0.12513623D+00
  0.34723687D-01  0.92854262D-15  0.12959727D-14 -0.13338167D-02  0.84866637D-15
  0.62999087D-14 -0.15691670D-02  0.10116537D-15  0.74935428D-15 -0.11942417D-02
  0.78584605D-03  0.78584605D-03 -0.15716921D-02 -0.13485522D-14  0.32902264D-14
  0.84949964D-14  0.30915571D-03  0.30915571D-03 -0.61831142D-03 -0.50284147D-16
  0.40992034D-15  0.37164497D-14 -0.26776488D-15 -0.10394962D-14 -0.36796615D-03
 -0.26767148D-15 -0.10199262D-14  0.55194923D-03  0.10709661D-14  0.41384147D-14
  0.55194923D-03 -0.12699083D-14  0.12234489D-03  0.22573625D-03  0.36636321D-03
  0.20496986D-02  0.29047417D-02 -0.40664389D-04 -0.11411698D-14 -0.14192522D-14
 -0.25277987D-02 -0.79675598D-15 -0.61666510D-14  0.22415635D-03 -0.13307209D-15
 -0.78627237D-15 -0.78292029D-03 -0.52329785D-03 -0.52329785D-03  0.10465957D-02
  0.13580372D-14  0.29594467D-14  0.83404365D-14  0.16354752D-03  0.16354752D-03
 -0.32709505D-03  0.50359971D-16  0.52920921D-15  0.38732044D-14  0.24924768D-15
  0.11070718D-14  0.89523862D-04  0.24155885D-15  0.11169099D-14 -0.13428579D-03
 -0.98930189D-15 -0.44381253D-14 -0.13428579D-03 -0.12748437D-14
END DATA
 TOTAL ENERGY =       -0.499945967270 THE VIRIAL(-V/T)=   2.00000693
