 TITLE
GAUSSIAN              1 MOL ORBITALS     74 PRIMITIVES        2 NUCLEI
  H    1    (CENTRE  1)   0.00000000  0.00000000  0.00000000  CHARGE =  1.0
  H    2    (CENTRE  2)   0.00000000  0.00000000  0.37794522  CHARGE =  0.0
CENTRE ASSIGNMENTS    1  1  1  1  1  1  1  1  1  1  1  1  1  1  1  1  1  1  1  1
CENTRE ASSIGNMENTS    1  1  1  1  1  1  1  1  1  1  1  1  1  1  1  1  1  2  2  2
CENTRE ASSIGNMENTS    2  2  2  2  2  2  2  2  2  2  2  2  2  2  2  2  2  2  2  2
CENTRE ASSIGNMENTS    2  2  2  2  2  2  2  2  2  2  2  2  2  2
TYPE ASSIGNMENTS      1  1  1  1  1  1  2  3  4  2  3  4  2  3  4  5  6  7  8  9
TYPE ASSIGNMENTS     10  5  6  7  8  9 10 11 12 13 17 14 15 18 19 16 20  1  1  1
TYPE ASSIGNMENTS      1  1  1  2  3  4  2  3  4  2  3  4  5  6  7  8  9 10  5  6
TYPE ASSIGNMENTS      7  8  9 10 11 12 13 17 14 15 18 19 16 20
EXPONENTS  0.8264000D+02 0.1241000D+02 0.2824000D+01 0.7977000D+00 0.2581000D+00
EXPONENTS  0.8989000D-01 0.2292000D+01 0.2292000D+01 0.2292000D+01 0.8380000D+00
EXPONENTS  0.8380000D+00 0.8380000D+00 0.2920000D+00 0.2920000D+00 0.2920000D+00
EXPONENTS  0.2062000D+01 0.2062000D+01 0.2062000D+01 0.2062000D+01 0.2062000D+01
EXPONENTS  0.2062000D+01 0.6620000D+00 0.6620000D+00 0.6620000D+00 0.6620000D+00
EXPONENTS  0.6620000D+00 0.6620000D+00 0.1397000D+01 0.1397000D+01 0.1397000D+01
EXPONENTS  0.1397000D+01 0.1397000D+01 0.1397000D+01 0.1397000D+01 0.1397000D+01
EXPONENTS  0.1397000D+01 0.1397000D+01 0.8264000D+02 0.1241000D+02 0.2824000D+01
EXPONENTS  0.7977000D+00 0.2581000D+00 0.8989000D-01 0.2292000D+01 0.2292000D+01
EXPONENTS  0.2292000D+01 0.8380000D+00 0.8380000D+00 0.8380000D+00 0.2920000D+00
EXPONENTS  0.2920000D+00 0.2920000D+00 0.2062000D+01 0.2062000D+01 0.2062000D+01
EXPONENTS  0.2062000D+01 0.2062000D+01 0.2062000D+01 0.6620000D+00 0.6620000D+00
EXPONENTS  0.6620000D+00 0.6620000D+00 0.6620000D+00 0.6620000D+00 0.1397000D+01
EXPONENTS  0.1397000D+01 0.1397000D+01 0.1397000D+01 0.1397000D+01 0.1397000D+01
EXPONENTS  0.1397000D+01 0.1397000D+01 0.1397000D+01 0.1397000D+01
MO    1     MO 0.0        OCC NO =    1.0000000  ORB. ENERGY =   -0.499946
  0.39373729D-01  0.72647723D-01  0.11790509D+00  0.52060114D-01  0.10492074D+00
  0.35552407D-01 -0.26613602D-15  0.51354857D-14 -0.12894784D-02 -0.39289831D-15
  0.94752145D-14 -0.32415137D-01 -0.73167175D-15  0.17616599D-14 -0.28244617D-02
  0.19927545D-03  0.19927545D-03 -0.39855090D-03 -0.56095748D-14  0.21956992D-14
  0.83021927D-14  0.65150772D-03  0.65150772D-03 -0.13030154D-02 -0.17131984D-15
 -0.26145041D-15  0.23943992D-14 -0.87474803D-16 -0.44905221D-15  0.55241698D-03
 -0.14044173D-15 -0.38433507D-15 -0.82862547D-03  0.40286614D-15  0.17314917D-14
 -0.82862547D-03 -0.17356793D-14  0.93565796D-04  0.17263648D-03  0.28018386D-03
  0.10224702D+00  0.23431068D-01 -0.89745102D-03 -0.83594318D-15 -0.55487795D-14
  0.25231984D-02  0.76616400D-15 -0.96858362D-14 -0.31886714D-01  0.85229395D-17
 -0.11636075D-14 -0.31241578D-02  0.11064762D-02  0.11064762D-02 -0.22129525D-02
  0.56438508D-14 -0.18355073D-14  0.39528558D-14 -0.68060468D-03 -0.68060468D-03
  0.13612094D-02  0.15558292D-15 -0.44579209D-16  0.20311995D-14 -0.13904463D-15
  0.11605749D-15  0.75080231D-03 -0.70856792D-16  0.40033324D-16 -0.11262035D-02
  0.48799069D-15 -0.38820581D-15 -0.11262035D-02 -0.17413787D-14
END DATA
 TOTAL ENERGY =       -0.499945909695 THE VIRIAL(-V/T)=   1.99999415
