 TITLE
GAUSSIAN              1 MOL ORBITALS     74 PRIMITIVES        2 NUCLEI
  H    1    (CENTRE  1)   0.00000000  0.00000000  0.00000000  CHARGE =  1.0
  H    2    (CENTRE  2)   0.00000000  0.00000000 10.77143891  CHARGE =  0.0
CENTRE ASSIGNMENTS    1  1  1  1  1  1  1  1  1  1  1  1  1  1  1  1  1  1  1  1
CENTRE ASSIGNMENTS    1  1  1  1  1  1  1  1  1  1  1  1  1  1  1  1  1  2  2  2
CENTRE ASSIGNMENTS    2  2  2  2  2  2  2  2  2  2  2  2  2  2  2  2  2  2  2  2
CENTRE ASSIGNMENTS    2  2  2  2  2  2  2  2  2  2  2  2  2  2
TYPE ASSIGNMENTS      1  1  1  1  1  1  2  3  4  2  3  4  2  3  4  5  6  7  8  9
TYPE ASSIGNMENTS     10  5  6  7  8  9 10 11 12 13 17 14 15 18 19 16 20  1  1  1
TYPE ASSIGNMENTS      1  1  1  2  3  4  2  3  4  2  3  4  5  6  7  8  9 10  5  6
TYPE ASSIGNMENTS      7  8  9 10 11 12 13 17 14 15 18 19 16 20
EXPONENTS  0.8264000D+02 0.1241000D+02 0.2824000D+01 0.7977000D+00 0.2581000D+00
EXPONENTS  0.8989000D-01 0.2292000D+01 0.2292000D+01 0.2292000D+01 0.8380000D+00
EXPONENTS  0.8380000D+00 0.8380000D+00 0.2920000D+00 0.2920000D+00 0.2920000D+00
EXPONENTS  0.2062000D+01 0.2062000D+01 0.2062000D+01 0.2062000D+01 0.2062000D+01
EXPONENTS  0.2062000D+01 0.6620000D+00 0.6620000D+00 0.6620000D+00 0.6620000D+00
EXPONENTS  0.6620000D+00 0.6620000D+00 0.1397000D+01 0.1397000D+01 0.1397000D+01
EXPONENTS  0.1397000D+01 0.1397000D+01 0.1397000D+01 0.1397000D+01 0.1397000D+01
EXPONENTS  0.1397000D+01 0.1397000D+01 0.8264000D+02 0.1241000D+02 0.2824000D+01
EXPONENTS  0.7977000D+00 0.2581000D+00 0.8989000D-01 0.2292000D+01 0.2292000D+01
EXPONENTS  0.2292000D+01 0.8380000D+00 0.8380000D+00 0.8380000D+00 0.2920000D+00
EXPONENTS  0.2920000D+00 0.2920000D+00 0.2062000D+01 0.2062000D+01 0.2062000D+01
EXPONENTS  0.2062000D+01 0.2062000D+01 0.2062000D+01 0.6620000D+00 0.6620000D+00
EXPONENTS  0.6620000D+00 0.6620000D+00 0.6620000D+00 0.6620000D+00 0.1397000D+01
EXPONENTS  0.1397000D+01 0.1397000D+01 0.1397000D+01 0.1397000D+01 0.1397000D+01
EXPONENTS  0.1397000D+01 0.1397000D+01 0.1397000D+01 0.1397000D+01
MO    1     MO 0.0        OCC NO =    1.0000000  ORB. ENERGY =   -0.499946
  0.39186783D-01  0.72302793D-01  0.11734528D+00  0.15452842D+00  0.12836025D+00
  0.34647939D-01 -0.17506793D-16 -0.34094207D-16  0.28975977D-06  0.16863445D-16
  0.30213726D-16 -0.30516750D-06 -0.11002764D-16 -0.10792405D-16  0.20540536D-06
  0.33137741D-07  0.33137741D-07 -0.66275482D-07  0.23949107D-15  0.24052635D-16
  0.13814875D-15 -0.19364730D-07 -0.19364730D-07  0.38729460D-07 -0.89734826D-16
 -0.18843102D-17 -0.35155595D-16  0.37137314D-21 -0.83383819D-21  0.64271566D-08
  0.37159540D-21 -0.83261147D-21 -0.96407349D-08 -0.14857148D-20  0.33341260D-20
 -0.96407349D-08 -0.38380497D-22 -0.79174009D-05 -0.14608247D-04 -0.23708749D-04
  0.88243705D-04 -0.13546704D-03  0.84286693D-04 -0.38627801D-15  0.33672122D-15
 -0.69365980D-04  0.94647480D-16 -0.89116140D-16  0.77718461D-04 -0.68098835D-17
  0.47465165D-17 -0.40596777D-04  0.80569231D-05  0.80569231D-05 -0.16113846D-04
  0.12896407D-16 -0.10783544D-15  0.21176578D-15 -0.41106207D-05 -0.41106207D-05
  0.82212414D-05 -0.20366822D-17  0.31372384D-16 -0.80357869D-16  0.92010620D-19
  0.16805522D-19 -0.12545610D-05  0.62450396D-20 -0.24303130D-18  0.18818416D-05
 -0.28227690D-18  0.19261473D-18  0.18818416D-05 -0.47748220D-19
END DATA
 TOTAL ENERGY =       -0.499945677839 THE VIRIAL(-V/T)=   2.00000614
