 TITLE
GAUSSIAN              1 MOL ORBITALS     74 PRIMITIVES        2 NUCLEI
  H    1    (CENTRE  1)   0.00000000  0.00000000  0.00000000  CHARGE =  1.0
  H    2    (CENTRE  2)   0.00000000  0.00000000 12.09424720  CHARGE =  0.0
CENTRE ASSIGNMENTS    1  1  1  1  1  1  1  1  1  1  1  1  1  1  1  1  1  1  1  1
CENTRE ASSIGNMENTS    1  1  1  1  1  1  1  1  1  1  1  1  1  1  1  1  1  2  2  2
CENTRE ASSIGNMENTS    2  2  2  2  2  2  2  2  2  2  2  2  2  2  2  2  2  2  2  2
CENTRE ASSIGNMENTS    2  2  2  2  2  2  2  2  2  2  2  2  2  2
TYPE ASSIGNMENTS      1  1  1  1  1  1  2  3  4  2  3  4  2  3  4  5  6  7  8  9
TYPE ASSIGNMENTS     10  5  6  7  8  9 10 11 12 13 17 14 15 18 19 16 20  1  1  1
TYPE ASSIGNMENTS      1  1  1  2  3  4  2  3  4  2  3  4  5  6  7  8  9 10  5  6
TYPE ASSIGNMENTS      7  8  9 10 11 12 13 17 14 15 18 19 16 20
EXPONENTS  0.8264000D+02 0.1241000D+02 0.2824000D+01 0.7977000D+00 0.2581000D+00
EXPONENTS  0.8989000D-01 0.2292000D+01 0.2292000D+01 0.2292000D+01 0.8380000D+00
EXPONENTS  0.8380000D+00 0.8380000D+00 0.2920000D+00 0.2920000D+00 0.2920000D+00
EXPONENTS  0.2062000D+01 0.2062000D+01 0.2062000D+01 0.2062000D+01 0.2062000D+01
EXPONENTS  0.2062000D+01 0.6620000D+00 0.6620000D+00 0.6620000D+00 0.6620000D+00
EXPONENTS  0.6620000D+00 0.6620000D+00 0.1397000D+01 0.1397000D+01 0.1397000D+01
EXPONENTS  0.1397000D+01 0.1397000D+01 0.1397000D+01 0.1397000D+01 0.1397000D+01
EXPONENTS  0.1397000D+01 0.1397000D+01 0.8264000D+02 0.1241000D+02 0.2824000D+01
EXPONENTS  0.7977000D+00 0.2581000D+00 0.8989000D-01 0.2292000D+01 0.2292000D+01
EXPONENTS  0.2292000D+01 0.8380000D+00 0.8380000D+00 0.8380000D+00 0.2920000D+00
EXPONENTS  0.2920000D+00 0.2920000D+00 0.2062000D+01 0.2062000D+01 0.2062000D+01
EXPONENTS  0.2062000D+01 0.2062000D+01 0.2062000D+01 0.6620000D+00 0.6620000D+00
EXPONENTS  0.6620000D+00 0.6620000D+00 0.6620000D+00 0.6620000D+00 0.1397000D+01
EXPONENTS  0.1397000D+01 0.1397000D+01 0.1397000D+01 0.1397000D+01 0.1397000D+01
EXPONENTS  0.1397000D+01 0.1397000D+01 0.1397000D+01 0.1397000D+01
MO    1     MO 0.0        OCC NO =    1.0000000  ORB. ENERGY =   -0.499946
  0.39186797D-01  0.72302818D-01  0.11734532D+00  0.15452889D+00  0.12836004D+00
  0.34648122D-01 -0.11979000D-15  0.65014772D-16  0.32922362D-07  0.10723931D-15
 -0.51008819D-16 -0.34705379D-07 -0.22033245D-16  0.85970740D-17  0.21584711D-07
  0.28320121D-08  0.28320120D-08 -0.56640241D-08  0.94483846D-18 -0.19231211D-16
 -0.80253642D-17 -0.15871056D-08 -0.15871056D-08  0.31742112D-08  0.51942471D-18
  0.37275100D-17  0.31523185D-17  0.38519206D-23 -0.21180070D-23  0.49796036D-09
 -0.76283836D-24 -0.52842183D-25 -0.74694054D-09 -0.10792924D-22  0.64068632D-23
 -0.74694054D-09  0.16732729D-23 -0.49679558D-05 -0.91662814D-05 -0.14876601D-04
  0.53607726D-04 -0.75595187D-04  0.41531973D-04 -0.61648295D-15 -0.36816612D-16
 -0.18607110D-04  0.15435145D-15 -0.21139699D-16  0.20421557D-04 -0.14580501D-16
  0.88337586D-17 -0.10055549D-04  0.16353819D-05  0.16353819D-05 -0.32707637D-05
 -0.36986073D-16  0.57061143D-17 -0.10146046D-15 -0.80997837D-06 -0.80997837D-06
  0.16199567D-05  0.14236343D-17  0.38568394D-18  0.63128459D-17  0.55346330D-19
 -0.90179253D-19 -0.24809577D-06 -0.69017327D-20  0.11952566D-18  0.37214365D-06
 -0.15913726D-18  0.15101210D-18  0.37214365D-06  0.93291484D-22
END DATA
 TOTAL ENERGY =       -0.499945592578 THE VIRIAL(-V/T)=   2.00000241
