 TITLE
GAUSSIAN              1 MOL ORBITALS     74 PRIMITIVES        2 NUCLEI
  H    1    (CENTRE  1)   0.00000000  0.00000000  0.00000000  CHARGE =  1.0
  H    2    (CENTRE  2)   0.00000000  0.00000000  6.23609621  CHARGE =  0.0
CENTRE ASSIGNMENTS    1  1  1  1  1  1  1  1  1  1  1  1  1  1  1  1  1  1  1  1
CENTRE ASSIGNMENTS    1  1  1  1  1  1  1  1  1  1  1  1  1  1  1  1  1  2  2  2
CENTRE ASSIGNMENTS    2  2  2  2  2  2  2  2  2  2  2  2  2  2  2  2  2  2  2  2
CENTRE ASSIGNMENTS    2  2  2  2  2  2  2  2  2  2  2  2  2  2
TYPE ASSIGNMENTS      1  1  1  1  1  1  2  3  4  2  3  4  2  3  4  5  6  7  8  9
TYPE ASSIGNMENTS     10  5  6  7  8  9 10 11 12 13 17 14 15 18 19 16 20  1  1  1
TYPE ASSIGNMENTS      1  1  1  2  3  4  2  3  4  2  3  4  5  6  7  8  9 10  5  6
TYPE ASSIGNMENTS      7  8  9 10 11 12 13 17 14 15 18 19 16 20
EXPONENTS  0.8264000D+02 0.1241000D+02 0.2824000D+01 0.7977000D+00 0.2581000D+00
EXPONENTS  0.8989000D-01 0.2292000D+01 0.2292000D+01 0.2292000D+01 0.8380000D+00
EXPONENTS  0.8380000D+00 0.8380000D+00 0.2920000D+00 0.2920000D+00 0.2920000D+00
EXPONENTS  0.2062000D+01 0.2062000D+01 0.2062000D+01 0.2062000D+01 0.2062000D+01
EXPONENTS  0.2062000D+01 0.6620000D+00 0.6620000D+00 0.6620000D+00 0.6620000D+00
EXPONENTS  0.6620000D+00 0.6620000D+00 0.1397000D+01 0.1397000D+01 0.1397000D+01
EXPONENTS  0.1397000D+01 0.1397000D+01 0.1397000D+01 0.1397000D+01 0.1397000D+01
EXPONENTS  0.1397000D+01 0.1397000D+01 0.8264000D+02 0.1241000D+02 0.2824000D+01
EXPONENTS  0.7977000D+00 0.2581000D+00 0.8989000D-01 0.2292000D+01 0.2292000D+01
EXPONENTS  0.2292000D+01 0.8380000D+00 0.8380000D+00 0.8380000D+00 0.2920000D+00
EXPONENTS  0.2920000D+00 0.2920000D+00 0.2062000D+01 0.2062000D+01 0.2062000D+01
EXPONENTS  0.2062000D+01 0.2062000D+01 0.2062000D+01 0.6620000D+00 0.6620000D+00
EXPONENTS  0.6620000D+00 0.6620000D+00 0.6620000D+00 0.6620000D+00 0.1397000D+01
EXPONENTS  0.1397000D+01 0.1397000D+01 0.1397000D+01 0.1397000D+01 0.1397000D+01
EXPONENTS  0.1397000D+01 0.1397000D+01 0.1397000D+01 0.1397000D+01
MO    1     MO 0.0        OCC NO =    1.0000000  ORB. ENERGY =   -0.499946
  0.39188008D-01  0.72305053D-01  0.11734894D+00  0.15450816D+00  0.12839521D+00
  0.34620197D-01 -0.20450202D-18  0.37306194D-16 -0.31648241D-04 -0.20561844D-16
 -0.31667515D-16  0.37347649D-04  0.15833152D-18  0.34415359D-17 -0.19254318D-04
 -0.51463776D-05 -0.51463776D-05  0.10292755D-04  0.95930229D-16 -0.65243573D-16
 -0.17635938D-17  0.24820629D-05  0.24820629D-05 -0.49641257D-05 -0.31822728D-16
  0.92138412D-17 -0.75685339D-17  0.41240460D-19 -0.43327851D-19 -0.10007398D-05
  0.24892100D-19 -0.47048643D-19  0.15011096D-05 -0.14861348D-18  0.17703219D-18
  0.15011096D-05  0.76257555D-21 -0.12192381D-04 -0.22495932D-04 -0.36510226D-04
  0.15750695D-03 -0.23757779D-03  0.17116370D-03  0.21524910D-15 -0.34532520D-15
  0.32671835D-04 -0.27369169D-16  0.45085287D-16 -0.71585599D-04 -0.56074464D-17
  0.53878061D-18  0.13744969D-03 -0.47809125D-04 -0.47809125D-04  0.95618249D-04
  0.12601700D-15  0.71730036D-15  0.16732218D-15  0.37689289D-04  0.37689289D-04
 -0.75378578D-04 -0.22142353D-17 -0.38914919D-16 -0.56108458D-17  0.23798851D-18
 -0.38644430D-18 -0.86441041D-05 -0.97966266D-18  0.12451653D-17  0.12966156D-04
  0.26569714D-18 -0.85832378D-19  0.12966156D-04 -0.13334192D-18
END DATA
 TOTAL ENERGY =       -0.499946157111 THE VIRIAL(-V/T)=   2.00003480
