 TITLE
GAUSSIAN              1 MOL ORBITALS     74 PRIMITIVES        2 NUCLEI
  H    1    (CENTRE  1)   0.00000000  0.00000000  0.00000000  CHARGE =  1.0
  H    2    (CENTRE  2)   0.00000000  0.00000000  7.74787711  CHARGE =  0.0
CENTRE ASSIGNMENTS    1  1  1  1  1  1  1  1  1  1  1  1  1  1  1  1  1  1  1  1
CENTRE ASSIGNMENTS    1  1  1  1  1  1  1  1  1  1  1  1  1  1  1  1  1  2  2  2
CENTRE ASSIGNMENTS    2  2  2  2  2  2  2  2  2  2  2  2  2  2  2  2  2  2  2  2
CENTRE ASSIGNMENTS    2  2  2  2  2  2  2  2  2  2  2  2  2  2
TYPE ASSIGNMENTS      1  1  1  1  1  1  2  3  4  2  3  4  2  3  4  5  6  7  8  9
TYPE ASSIGNMENTS     10  5  6  7  8  9 10 11 12 13 17 14 15 18 19 16 20  1  1  1
TYPE ASSIGNMENTS      1  1  1  2  3  4  2  3  4  2  3  4  5  6  7  8  9 10  5  6
TYPE ASSIGNMENTS      7  8  9 10 11 12 13 17 14 15 18 19 16 20
EXPONENTS  0.8264000D+02 0.1241000D+02 0.2824000D+01 0.7977000D+00 0.2581000D+00
EXPONENTS  0.8989000D-01 0.2292000D+01 0.2292000D+01 0.2292000D+01 0.8380000D+00
EXPONENTS  0.8380000D+00 0.8380000D+00 0.2920000D+00 0.2920000D+00 0.2920000D+00
EXPONENTS  0.2062000D+01 0.2062000D+01 0.2062000D+01 0.2062000D+01 0.2062000D+01
EXPONENTS  0.2062000D+01 0.6620000D+00 0.6620000D+00 0.6620000D+00 0.6620000D+00
EXPONENTS  0.6620000D+00 0.6620000D+00 0.1397000D+01 0.1397000D+01 0.1397000D+01
EXPONENTS  0.1397000D+01 0.1397000D+01 0.1397000D+01 0.1397000D+01 0.1397000D+01
EXPONENTS  0.1397000D+01 0.1397000D+01 0.8264000D+02 0.1241000D+02 0.2824000D+01
EXPONENTS  0.7977000D+00 0.2581000D+00 0.8989000D-01 0.2292000D+01 0.2292000D+01
EXPONENTS  0.2292000D+01 0.8380000D+00 0.8380000D+00 0.8380000D+00 0.2920000D+00
EXPONENTS  0.2920000D+00 0.2920000D+00 0.2062000D+01 0.2062000D+01 0.2062000D+01
EXPONENTS  0.2062000D+01 0.2062000D+01 0.2062000D+01 0.6620000D+00 0.6620000D+00
EXPONENTS  0.6620000D+00 0.6620000D+00 0.6620000D+00 0.6620000D+00 0.1397000D+01
EXPONENTS  0.1397000D+01 0.1397000D+01 0.1397000D+01 0.1397000D+01 0.1397000D+01
EXPONENTS  0.1397000D+01 0.1397000D+01 0.1397000D+01 0.1397000D+01
MO    1     MO 0.0        OCC NO =    1.0000000  ORB. ENERGY =   -0.499946
  0.39187931D-01  0.72304910D-01  0.11734871D+00  0.15451215D+00  0.12838128D+00
  0.34635911D-01  0.60038612D-16 -0.39928887D-16 -0.55994099D-06 -0.61096518D-16
  0.11675283D-16  0.10127091D-05  0.18288961D-16 -0.12373711D-16  0.85007544D-06
  0.23298767D-06  0.23298767D-06 -0.46597534D-06  0.36364124D-16 -0.21537423D-15
 -0.21230354D-15 -0.22975681D-06 -0.22975681D-06  0.45951362D-06 -0.25955207D-17
  0.19445219D-16  0.19458181D-16  0.30561148D-19  0.95198428D-20  0.80437116D-07
  0.30500015D-19  0.95595656D-20 -0.12065567D-06 -0.12218346D-18 -0.38119094D-19
 -0.12065567D-06  0.12779278D-19 -0.67720833D-05 -0.12495043D-04 -0.20279082D-04
  0.66412667D-04 -0.82407724D-04  0.12534813D-03  0.70336614D-15  0.23314758D-15
  0.31814166D-04 -0.19441611D-15 -0.44151626D-16 -0.27968088D-04  0.22534778D-16
  0.53403292D-17 -0.16768303D-04 -0.38553608D-04 -0.38553608D-04  0.77107217D-04
 -0.96932638D-15 -0.72865996D-16 -0.19947749D-15  0.18630666D-04  0.18630666D-04
 -0.37261332D-04  0.79332526D-16  0.16867679D-16  0.18285640D-16  0.93872582D-19
  0.15422012D-18  0.15193149D-04 -0.50980633D-19  0.79250127D-19 -0.22789723D-04
 -0.23063711D-18 -0.54191047D-18 -0.22789723D-04 -0.16471356D-17
END DATA
 TOTAL ENERGY =       -0.499945943906 THE VIRIAL(-V/T)=   2.00002840
