 TITLE
GAUSSIAN              1 MOL ORBITALS     74 PRIMITIVES        2 NUCLEI
  H    1    (CENTRE  1)   0.00000000  0.00000000  0.00000000  CHARGE =  1.0
  H    2    (CENTRE  2)   0.00000000  0.00000000  8.31479495  CHARGE =  0.0
CENTRE ASSIGNMENTS    1  1  1  1  1  1  1  1  1  1  1  1  1  1  1  1  1  1  1  1
CENTRE ASSIGNMENTS    1  1  1  1  1  1  1  1  1  1  1  1  1  1  1  1  1  2  2  2
CENTRE ASSIGNMENTS    2  2  2  2  2  2  2  2  2  2  2  2  2  2  2  2  2  2  2  2
CENTRE ASSIGNMENTS    2  2  2  2  2  2  2  2  2  2  2  2  2  2
TYPE ASSIGNMENTS      1  1  1  1  1  1  2  3  4  2  3  4  2  3  4  5  6  7  8  9
TYPE ASSIGNMENTS     10  5  6  7  8  9 10 11 12 13 17 14 15 18 19 16 20  1  1  1
TYPE ASSIGNMENTS      1  1  1  2  3  4  2  3  4  2  3  4  5  6  7  8  9 10  5  6
TYPE ASSIGNMENTS      7  8  9 10 11 12 13 17 14 15 18 19 16 20
EXPONENTS  0.8264000D+02 0.1241000D+02 0.2824000D+01 0.7977000D+00 0.2581000D+00
EXPONENTS  0.8989000D-01 0.2292000D+01 0.2292000D+01 0.2292000D+01 0.8380000D+00
EXPONENTS  0.8380000D+00 0.8380000D+00 0.2920000D+00 0.2920000D+00 0.2920000D+00
EXPONENTS  0.2062000D+01 0.2062000D+01 0.2062000D+01 0.2062000D+01 0.2062000D+01
EXPONENTS  0.2062000D+01 0.6620000D+00 0.6620000D+00 0.6620000D+00 0.6620000D+00
EXPONENTS  0.6620000D+00 0.6620000D+00 0.1397000D+01 0.1397000D+01 0.1397000D+01
EXPONENTS  0.1397000D+01 0.1397000D+01 0.1397000D+01 0.1397000D+01 0.1397000D+01
EXPONENTS  0.1397000D+01 0.1397000D+01 0.8264000D+02 0.1241000D+02 0.2824000D+01
EXPONENTS  0.7977000D+00 0.2581000D+00 0.8989000D-01 0.2292000D+01 0.2292000D+01
EXPONENTS  0.2292000D+01 0.8380000D+00 0.8380000D+00 0.8380000D+00 0.2920000D+00
EXPONENTS  0.2920000D+00 0.2920000D+00 0.2062000D+01 0.2062000D+01 0.2062000D+01
EXPONENTS  0.2062000D+01 0.2062000D+01 0.2062000D+01 0.6620000D+00 0.6620000D+00
EXPONENTS  0.6620000D+00 0.6620000D+00 0.6620000D+00 0.6620000D+00 0.1397000D+01
EXPONENTS  0.1397000D+01 0.1397000D+01 0.1397000D+01 0.1397000D+01 0.1397000D+01
EXPONENTS  0.1397000D+01 0.1397000D+01 0.1397000D+01 0.1397000D+01
MO    1     MO 0.0        OCC NO =    1.0000000  ORB. ENERGY =   -0.499946
  0.39187459D-01  0.72304041D-01  0.11734730D+00  0.15451776D+00  0.12837306D+00
  0.34640696D-01 -0.43413979D-16 -0.43807061D-17  0.12305166D-05  0.29190790D-16
  0.65451874D-17 -0.11182059D-05 -0.97526359D-17 -0.12618740D-17  0.15038190D-05
  0.30615528D-06  0.30615528D-06 -0.61231057D-06 -0.70129377D-16  0.25004412D-15
 -0.50203166D-16 -0.22364830D-06 -0.22364830D-06  0.44729660D-06 -0.33738121D-16
 -0.41448900D-16 -0.10165328D-16  0.25597634D-21 -0.60582821D-22  0.75977396D-07
  0.24617145D-21 -0.13170142D-21 -0.11396609D-06 -0.10141005D-20  0.31344988D-21
 -0.11396609D-06  0.13503000D-21 -0.41497830D-05 -0.76566863D-05 -0.12426573D-04
  0.44118922D-04 -0.83089178D-04  0.12175721D-03  0.11096523D-14 -0.63063653D-15
 -0.64676822D-04 -0.25646727D-15  0.14597337D-15  0.86580591D-04  0.15554438D-16
 -0.10032032D-16 -0.77869095D-04 -0.21984878D-06 -0.21984878D-06  0.43969756D-06
  0.80309666D-17  0.12170253D-15  0.52500240D-15 -0.15679077D-05 -0.15679077D-05
  0.31358155D-05 -0.70698766D-17 -0.23266271D-16 -0.36673056D-16 -0.21029200D-19
 -0.49187847D-19  0.44893719D-05  0.14183819D-18  0.42150864D-19 -0.67340578D-05
 -0.78750585D-19  0.10541268D-18 -0.67340578D-05  0.12456891D-18
END DATA
 TOTAL ENERGY =       -0.499945941262 THE VIRIAL(-V/T)=   2.00002619
