 TITLE
GAUSSIAN              1 MOL ORBITALS     74 PRIMITIVES        2 NUCLEI
  H    1    (CENTRE  1)   0.00000000  0.00000000  0.00000000  CHARGE =  1.0
  H    2    (CENTRE  2)   0.00000000  0.00000000 10.96041152  CHARGE =  0.0
CENTRE ASSIGNMENTS    1  1  1  1  1  1  1  1  1  1  1  1  1  1  1  1  1  1  1  1
CENTRE ASSIGNMENTS    1  1  1  1  1  1  1  1  1  1  1  1  1  1  1  1  1  2  2  2
CENTRE ASSIGNMENTS    2  2  2  2  2  2  2  2  2  2  2  2  2  2  2  2  2  2  2  2
CENTRE ASSIGNMENTS    2  2  2  2  2  2  2  2  2  2  2  2  2  2
TYPE ASSIGNMENTS      1  1  1  1  1  1  2  3  4  2  3  4  2  3  4  5  6  7  8  9
TYPE ASSIGNMENTS     10  5  6  7  8  9 10 11 12 13 17 14 15 18 19 16 20  1  1  1
TYPE ASSIGNMENTS      1  1  1  2  3  4  2  3  4  2  3  4  5  6  7  8  9 10  5  6
TYPE ASSIGNMENTS      7  8  9 10 11 12 13 17 14 15 18 19 16 20
EXPONENTS  0.8264000D+02 0.1241000D+02 0.2824000D+01 0.7977000D+00 0.2581000D+00
EXPONENTS  0.8989000D-01 0.2292000D+01 0.2292000D+01 0.2292000D+01 0.8380000D+00
EXPONENTS  0.8380000D+00 0.8380000D+00 0.2920000D+00 0.2920000D+00 0.2920000D+00
EXPONENTS  0.2062000D+01 0.2062000D+01 0.2062000D+01 0.2062000D+01 0.2062000D+01
EXPONENTS  0.2062000D+01 0.6620000D+00 0.6620000D+00 0.6620000D+00 0.6620000D+00
EXPONENTS  0.6620000D+00 0.6620000D+00 0.1397000D+01 0.1397000D+01 0.1397000D+01
EXPONENTS  0.1397000D+01 0.1397000D+01 0.1397000D+01 0.1397000D+01 0.1397000D+01
EXPONENTS  0.1397000D+01 0.1397000D+01 0.8264000D+02 0.1241000D+02 0.2824000D+01
EXPONENTS  0.7977000D+00 0.2581000D+00 0.8989000D-01 0.2292000D+01 0.2292000D+01
EXPONENTS  0.2292000D+01 0.8380000D+00 0.8380000D+00 0.8380000D+00 0.2920000D+00
EXPONENTS  0.2920000D+00 0.2920000D+00 0.2062000D+01 0.2062000D+01 0.2062000D+01
EXPONENTS  0.2062000D+01 0.2062000D+01 0.2062000D+01 0.6620000D+00 0.6620000D+00
EXPONENTS  0.6620000D+00 0.6620000D+00 0.6620000D+00 0.6620000D+00 0.1397000D+01
EXPONENTS  0.1397000D+01 0.1397000D+01 0.1397000D+01 0.1397000D+01 0.1397000D+01
EXPONENTS  0.1397000D+01 0.1397000D+01 0.1397000D+01 0.1397000D+01
MO    1     MO 0.0        OCC NO =    1.0000000  ORB. ENERGY =   -0.499946
  0.39186782D-01  0.72302792D-01  0.11734527D+00  0.15452857D+00  0.12836014D+00
  0.34648010D-01  0.67133889D-16 -0.76834585D-17  0.22277466D-06 -0.71672096D-16
  0.71986413D-17 -0.23476638D-06  0.15674038D-17  0.27552571D-17  0.15570607D-06
  0.24455249D-07  0.24455249D-07 -0.48910497D-07  0.35856454D-17 -0.39674140D-16
  0.14200369D-15 -0.14187897D-07 -0.14187897D-07  0.28375795D-07 -0.97920235D-18
  0.50236632D-17 -0.40756236D-16 -0.17123535D-21 -0.10389577D-21  0.46795091D-08
 -0.17334757D-21 -0.10238372D-21 -0.70192636D-08  0.68705361D-21  0.41407104D-21
 -0.70192636D-08 -0.67790384D-23 -0.76788606D-05 -0.14168121D-04 -0.22994437D-04
  0.85053874D-04 -0.12836550D-03  0.77862061D-04 -0.11579104D-15 -0.20620122D-16
 -0.59330658D-04  0.51694706D-16 -0.96443405D-18  0.66230050D-04 -0.10654132D-16
  0.71797259D-19 -0.34221201D-04  0.66332143D-05  0.66332143D-05 -0.13266429D-04
  0.65615277D-16  0.45631556D-16  0.32149353D-15 -0.33671904D-05 -0.33671904D-05
  0.67343808D-05 -0.97587274D-17  0.16165768D-18 -0.46236914D-16 -0.12323778D-19
 -0.30410085D-19 -0.10347609D-05 -0.49458860D-20  0.40497736D-19  0.15521413D-05
  0.41917219D-19  0.50732519D-19  0.15521413D-05  0.15853610D-19
END DATA
 TOTAL ENERGY =       -0.499945659606 THE VIRIAL(-V/T)=   2.00000528
