 TITLE
GAUSSIAN              1 MOL ORBITALS     74 PRIMITIVES        2 NUCLEI
  H    1    (CENTRE  1)   0.00000000  0.00000000  0.00000000  CHARGE =  1.0
  H    2    (CENTRE  2)   0.00000000  0.00000000  5.48020576  CHARGE =  0.0
CENTRE ASSIGNMENTS    1  1  1  1  1  1  1  1  1  1  1  1  1  1  1  1  1  1  1  1
CENTRE ASSIGNMENTS    1  1  1  1  1  1  1  1  1  1  1  1  1  1  1  1  1  2  2  2
CENTRE ASSIGNMENTS    2  2  2  2  2  2  2  2  2  2  2  2  2  2  2  2  2  2  2  2
CENTRE ASSIGNMENTS    2  2  2  2  2  2  2  2  2  2  2  2  2  2
TYPE ASSIGNMENTS      1  1  1  1  1  1  2  3  4  2  3  4  2  3  4  5  6  7  8  9
TYPE ASSIGNMENTS     10  5  6  7  8  9 10 11 12 13 17 14 15 18 19 16 20  1  1  1
TYPE ASSIGNMENTS      1  1  1  2  3  4  2  3  4  2  3  4  5  6  7  8  9 10  5  6
TYPE ASSIGNMENTS      7  8  9 10 11 12 13 17 14 15 18 19 16 20
EXPONENTS  0.8264000D+02 0.1241000D+02 0.2824000D+01 0.7977000D+00 0.2581000D+00
EXPONENTS  0.8989000D-01 0.2292000D+01 0.2292000D+01 0.2292000D+01 0.8380000D+00
EXPONENTS  0.8380000D+00 0.8380000D+00 0.2920000D+00 0.2920000D+00 0.2920000D+00
EXPONENTS  0.2062000D+01 0.2062000D+01 0.2062000D+01 0.2062000D+01 0.2062000D+01
EXPONENTS  0.2062000D+01 0.6620000D+00 0.6620000D+00 0.6620000D+00 0.6620000D+00
EXPONENTS  0.6620000D+00 0.6620000D+00 0.1397000D+01 0.1397000D+01 0.1397000D+01
EXPONENTS  0.1397000D+01 0.1397000D+01 0.1397000D+01 0.1397000D+01 0.1397000D+01
EXPONENTS  0.1397000D+01 0.1397000D+01 0.8264000D+02 0.1241000D+02 0.2824000D+01
EXPONENTS  0.7977000D+00 0.2581000D+00 0.8989000D-01 0.2292000D+01 0.2292000D+01
EXPONENTS  0.2292000D+01 0.8380000D+00 0.8380000D+00 0.8380000D+00 0.2920000D+00
EXPONENTS  0.2920000D+00 0.2920000D+00 0.2062000D+01 0.2062000D+01 0.2062000D+01
EXPONENTS  0.2062000D+01 0.2062000D+01 0.2062000D+01 0.6620000D+00 0.6620000D+00
EXPONENTS  0.6620000D+00 0.6620000D+00 0.6620000D+00 0.6620000D+00 0.1397000D+01
EXPONENTS  0.1397000D+01 0.1397000D+01 0.1397000D+01 0.1397000D+01 0.1397000D+01
EXPONENTS  0.1397000D+01 0.1397000D+01 0.1397000D+01 0.1397000D+01
MO    1     MO 0.0        OCC NO =    1.0000000  ORB. ENERGY =   -0.499946
  0.39188328D-01  0.72305643D-01  0.11734990D+00  0.15450464D+00  0.12840377D+00
  0.34606914D-01 -0.25706260D-16  0.66846449D-16 -0.42425451D-04 -0.26157983D-16
 -0.52967269D-16  0.52453109D-04  0.25652441D-17  0.17463695D-16 -0.31881304D-04
 -0.87733690D-05 -0.87733690D-05  0.17546738D-04 -0.12702287D-15 -0.31459399D-17
 -0.19505956D-15  0.47907266D-05  0.47907266D-05 -0.95814531D-05  0.11799594D-16
  0.15913283D-17  0.64410491D-16  0.12099670D-18 -0.24905884D-18 -0.21154006D-05
  0.12587797D-18 -0.24680473D-18  0.31731009D-05 -0.48886807D-18  0.99398125D-18
  0.31731009D-05 -0.88592582D-20 -0.76431212D-05 -0.14102179D-04 -0.22887415D-04
  0.93641057D-04 -0.28034355D-03  0.18360367D-03  0.32343017D-15 -0.25882037D-15
  0.64856016D-04 -0.11176997D-15  0.79198229D-16 -0.38673473D-04  0.24754398D-16
 -0.76803524D-17  0.95073199D-04  0.12082160D-03  0.12082160D-03 -0.24164321D-03
 -0.41491790D-15  0.11539328D-15 -0.19237972D-14 -0.65567762D-04 -0.65567762D-04
  0.13113552D-03  0.15871767D-16 -0.26108910D-16  0.11535215D-15 -0.17634569D-18
  0.21743158D-19 -0.11160311D-03 -0.66010117D-18 -0.20695499D-19  0.16740466D-03
  0.11891383D-17 -0.44533976D-19  0.16740466D-03  0.10097099D-18
END DATA
 TOTAL ENERGY =       -0.499946137100 THE VIRIAL(-V/T)=   2.00003669
