 TITLE
GAUSSIAN              1 MOL ORBITALS     74 PRIMITIVES        2 NUCLEI
  H    1    (CENTRE  1)   0.00000000  0.00000000  0.00000000  CHARGE =  1.0
  H    2    (CENTRE  2)   0.00000000  0.00000000 10.20452107  CHARGE =  0.0
CENTRE ASSIGNMENTS    1  1  1  1  1  1  1  1  1  1  1  1  1  1  1  1  1  1  1  1
CENTRE ASSIGNMENTS    1  1  1  1  1  1  1  1  1  1  1  1  1  1  1  1  1  2  2  2
CENTRE ASSIGNMENTS    2  2  2  2  2  2  2  2  2  2  2  2  2  2  2  2  2  2  2  2
CENTRE ASSIGNMENTS    2  2  2  2  2  2  2  2  2  2  2  2  2  2
TYPE ASSIGNMENTS      1  1  1  1  1  1  2  3  4  2  3  4  2  3  4  5  6  7  8  9
TYPE ASSIGNMENTS     10  5  6  7  8  9 10 11 12 13 17 14 15 18 19 16 20  1  1  1
TYPE ASSIGNMENTS      1  1  1  2  3  4  2  3  4  2  3  4  5  6  7  8  9 10  5  6
TYPE ASSIGNMENTS      7  8  9 10 11 12 13 17 14 15 18 19 16 20
EXPONENTS  0.8264000D+02 0.1241000D+02 0.2824000D+01 0.7977000D+00 0.2581000D+00
EXPONENTS  0.8989000D-01 0.2292000D+01 0.2292000D+01 0.2292000D+01 0.8380000D+00
EXPONENTS  0.8380000D+00 0.8380000D+00 0.2920000D+00 0.2920000D+00 0.2920000D+00
EXPONENTS  0.2062000D+01 0.2062000D+01 0.2062000D+01 0.2062000D+01 0.2062000D+01
EXPONENTS  0.2062000D+01 0.6620000D+00 0.6620000D+00 0.6620000D+00 0.6620000D+00
EXPONENTS  0.6620000D+00 0.6620000D+00 0.1397000D+01 0.1397000D+01 0.1397000D+01
EXPONENTS  0.1397000D+01 0.1397000D+01 0.1397000D+01 0.1397000D+01 0.1397000D+01
EXPONENTS  0.1397000D+01 0.1397000D+01 0.8264000D+02 0.1241000D+02 0.2824000D+01
EXPONENTS  0.7977000D+00 0.2581000D+00 0.8989000D-01 0.2292000D+01 0.2292000D+01
EXPONENTS  0.2292000D+01 0.8380000D+00 0.8380000D+00 0.8380000D+00 0.2920000D+00
EXPONENTS  0.2920000D+00 0.2920000D+00 0.2062000D+01 0.2062000D+01 0.2062000D+01
EXPONENTS  0.2062000D+01 0.2062000D+01 0.2062000D+01 0.6620000D+00 0.6620000D+00
EXPONENTS  0.6620000D+00 0.6620000D+00 0.6620000D+00 0.6620000D+00 0.1397000D+01
EXPONENTS  0.1397000D+01 0.1397000D+01 0.1397000D+01 0.1397000D+01 0.1397000D+01
EXPONENTS  0.1397000D+01 0.1397000D+01 0.1397000D+01 0.1397000D+01
MO    1     MO 0.0        OCC NO =    1.0000000  ORB. ENERGY =   -0.499946
  0.39186805D-01  0.72302833D-01  0.11734534D+00  0.15452762D+00  0.12836095D+00
  0.34647512D-01 -0.14917105D-16  0.11763039D-16  0.57291566D-06  0.75868176D-18
  0.16300321D-16 -0.60106635D-06 -0.10399804D-16  0.20962885D-16  0.42755353D-06
  0.74279632D-07  0.74279632D-07 -0.14855926D-06  0.19115994D-16 -0.71386950D-16
 -0.10727850D-15 -0.44530223D-07 -0.44530223D-07  0.89060446D-07 -0.71694960D-17
  0.22175605D-16  0.31148380D-16 -0.31467600D-21 -0.16004592D-20  0.15006486D-07
 -0.28833544D-20  0.46254220D-20 -0.22509729D-07  0.38273824D-20  0.17595559D-21
 -0.22509729D-07  0.33717207D-20 -0.79198000D-05 -0.14612673D-04 -0.23715933D-04
  0.90325227D-04 -0.14815728D-03  0.10197489D-03  0.35779735D-15  0.21043282D-15
 -0.10238985D-03 -0.81917944D-16 -0.39464588D-16  0.11627196D-03  0.81614553D-17
  0.14640964D-16 -0.63251844D-04  0.13264270D-04  0.13264270D-04 -0.26528541D-04
  0.17592165D-15 -0.21692216D-15 -0.58192486D-16 -0.68907356D-05 -0.68907356D-05
  0.13781471D-04 -0.47045105D-17  0.28278962D-16  0.78385320D-17  0.90805205D-19
 -0.22718038D-19 -0.20125102D-05  0.43468117D-19 -0.71687102D-19  0.30187654D-05
 -0.31588373D-18  0.13984122D-18  0.30187654D-05 -0.37471777D-19
END DATA
 TOTAL ENERGY =       -0.499945745152 THE VIRIAL(-V/T)=   2.00000959
