 TITLE
GAUSSIAN              1 MOL ORBITALS     74 PRIMITIVES        2 NUCLEI
  H    1    (CENTRE  1)   0.00000000  0.00000000  0.00000000  CHARGE =  1.0
  H    2    (CENTRE  2)   0.00000000  0.00000000  8.12582234  CHARGE =  0.0
CENTRE ASSIGNMENTS    1  1  1  1  1  1  1  1  1  1  1  1  1  1  1  1  1  1  1  1
CENTRE ASSIGNMENTS    1  1  1  1  1  1  1  1  1  1  1  1  1  1  1  1  1  2  2  2
CENTRE ASSIGNMENTS    2  2  2  2  2  2  2  2  2  2  2  2  2  2  2  2  2  2  2  2
CENTRE ASSIGNMENTS    2  2  2  2  2  2  2  2  2  2  2  2  2  2
TYPE ASSIGNMENTS      1  1  1  1  1  1  2  3  4  2  3  4  2  3  4  5  6  7  8  9
TYPE ASSIGNMENTS     10  5  6  7  8  9 10 11 12 13 17 14 15 18 19 16 20  1  1  1
TYPE ASSIGNMENTS      1  1  1  2  3  4  2  3  4  2  3  4  5  6  7  8  9 10  5  6
TYPE ASSIGNMENTS      7  8  9 10 11 12 13 17 14 15 18 19 16 20
EXPONENTS  0.8264000D+02 0.1241000D+02 0.2824000D+01 0.7977000D+00 0.2581000D+00
EXPONENTS  0.8989000D-01 0.2292000D+01 0.2292000D+01 0.2292000D+01 0.8380000D+00
EXPONENTS  0.8380000D+00 0.8380000D+00 0.2920000D+00 0.2920000D+00 0.2920000D+00
EXPONENTS  0.2062000D+01 0.2062000D+01 0.2062000D+01 0.2062000D+01 0.2062000D+01
EXPONENTS  0.2062000D+01 0.6620000D+00 0.6620000D+00 0.6620000D+00 0.6620000D+00
EXPONENTS  0.6620000D+00 0.6620000D+00 0.1397000D+01 0.1397000D+01 0.1397000D+01
EXPONENTS  0.1397000D+01 0.1397000D+01 0.1397000D+01 0.1397000D+01 0.1397000D+01
EXPONENTS  0.1397000D+01 0.1397000D+01 0.8264000D+02 0.1241000D+02 0.2824000D+01
EXPONENTS  0.7977000D+00 0.2581000D+00 0.8989000D-01 0.2292000D+01 0.2292000D+01
EXPONENTS  0.2292000D+01 0.8380000D+00 0.8380000D+00 0.8380000D+00 0.2920000D+00
EXPONENTS  0.2920000D+00 0.2920000D+00 0.2062000D+01 0.2062000D+01 0.2062000D+01
EXPONENTS  0.2062000D+01 0.2062000D+01 0.2062000D+01 0.6620000D+00 0.6620000D+00
EXPONENTS  0.6620000D+00 0.6620000D+00 0.6620000D+00 0.6620000D+00 0.1397000D+01
EXPONENTS  0.1397000D+01 0.1397000D+01 0.1397000D+01 0.1397000D+01 0.1397000D+01
EXPONENTS  0.1397000D+01 0.1397000D+01 0.1397000D+01 0.1397000D+01
MO    1     MO 0.0        OCC NO =    1.0000000  ORB. ENERGY =   -0.499946
  0.39187607D-01  0.72304313D-01  0.11734774D+00  0.15451597D+00  0.12837558D+00
  0.34639263D-01  0.11261583D-16  0.10037893D-16  0.92470548D-06 -0.12701870D-16
 -0.17129077D-16 -0.73556874D-06  0.13672352D-17  0.34142577D-17  0.14468512D-05
  0.30640737D-06  0.30640737D-06 -0.61281474D-06 -0.31667500D-16  0.55852400D-16
 -0.80088324D-16 -0.23630558D-06 -0.23630558D-06  0.47261117D-06 -0.13068464D-16
 -0.13914048D-16  0.22454143D-16  0.11121345D-20 -0.29377666D-20  0.80474573D-07
  0.11334534D-20 -0.29432371D-20 -0.12071186D-06 -0.44698567D-20  0.11756537D-19
 -0.12071186D-06  0.45290136D-20 -0.46774188D-05 -0.86302170D-05 -0.14006585D-04
  0.47562092D-04 -0.78758740D-04  0.12222060D-03  0.70396039D-15 -0.39382512D-15
 -0.34518628D-04 -0.15579041D-15  0.11134101D-15  0.52047957D-04  0.13806614D-16
 -0.14876201D-16 -0.61528020D-04 -0.10759546D-04 -0.10759546D-04  0.21519091D-04
 -0.41859104D-16 -0.19298255D-15 -0.45973064D-15  0.38161393D-05  0.38161393D-05
 -0.76322786D-05  0.12958366D-18  0.46518502D-18  0.35819626D-16 -0.11321543D-18
 -0.56658222D-19  0.75129354D-05  0.22701143D-19  0.21912991D-18 -0.11269403D-04
  0.31694515D-18 -0.49155242D-19 -0.11269403D-04  0.13127347D-18
END DATA
 TOTAL ENERGY =       -0.499945941159 THE VIRIAL(-V/T)=   2.00002720
