 TITLE
GAUSSIAN              1 MOL ORBITALS     74 PRIMITIVES        2 NUCLEI
  H    1    (CENTRE  1)   0.00000000  0.00000000  0.00000000  CHARGE =  1.0
  H    2    (CENTRE  2)   0.00000000  0.00000000  4.53534270  CHARGE =  0.0
CENTRE ASSIGNMENTS    1  1  1  1  1  1  1  1  1  1  1  1  1  1  1  1  1  1  1  1
CENTRE ASSIGNMENTS    1  1  1  1  1  1  1  1  1  1  1  1  1  1  1  1  1  2  2  2
CENTRE ASSIGNMENTS    2  2  2  2  2  2  2  2  2  2  2  2  2  2  2  2  2  2  2  2
CENTRE ASSIGNMENTS    2  2  2  2  2  2  2  2  2  2  2  2  2  2
TYPE ASSIGNMENTS      1  1  1  1  1  1  2  3  4  2  3  4  2  3  4  5  6  7  8  9
TYPE ASSIGNMENTS     10  5  6  7  8  9 10 11 12 13 17 14 15 18 19 16 20  1  1  1
TYPE ASSIGNMENTS      1  1  1  2  3  4  2  3  4  2  3  4  5  6  7  8  9 10  5  6
TYPE ASSIGNMENTS      7  8  9 10 11 12 13 17 14 15 18 19 16 20
EXPONENTS  0.8264000D+02 0.1241000D+02 0.2824000D+01 0.7977000D+00 0.2581000D+00
EXPONENTS  0.8989000D-01 0.2292000D+01 0.2292000D+01 0.2292000D+01 0.8380000D+00
EXPONENTS  0.8380000D+00 0.8380000D+00 0.2920000D+00 0.2920000D+00 0.2920000D+00
EXPONENTS  0.2062000D+01 0.2062000D+01 0.2062000D+01 0.2062000D+01 0.2062000D+01
EXPONENTS  0.2062000D+01 0.6620000D+00 0.6620000D+00 0.6620000D+00 0.6620000D+00
EXPONENTS  0.6620000D+00 0.6620000D+00 0.1397000D+01 0.1397000D+01 0.1397000D+01
EXPONENTS  0.1397000D+01 0.1397000D+01 0.1397000D+01 0.1397000D+01 0.1397000D+01
EXPONENTS  0.1397000D+01 0.1397000D+01 0.8264000D+02 0.1241000D+02 0.2824000D+01
EXPONENTS  0.7977000D+00 0.2581000D+00 0.8989000D-01 0.2292000D+01 0.2292000D+01
EXPONENTS  0.2292000D+01 0.8380000D+00 0.8380000D+00 0.8380000D+00 0.2920000D+00
EXPONENTS  0.2920000D+00 0.2920000D+00 0.2062000D+01 0.2062000D+01 0.2062000D+01
EXPONENTS  0.2062000D+01 0.2062000D+01 0.2062000D+01 0.6620000D+00 0.6620000D+00
EXPONENTS  0.6620000D+00 0.6620000D+00 0.6620000D+00 0.6620000D+00 0.1397000D+01
EXPONENTS  0.1397000D+01 0.1397000D+01 0.1397000D+01 0.1397000D+01 0.1397000D+01
EXPONENTS  0.1397000D+01 0.1397000D+01 0.1397000D+01 0.1397000D+01
MO    1     MO 0.0        OCC NO =    1.0000000  ORB. ENERGY =   -0.499946
  0.39189247D-01  0.72307339D-01  0.11735266D+00  0.15449671D+00  0.12841127D+00
  0.34590176D-01  0.21192852D-16 -0.73986827D-16 -0.44304567D-04 -0.15134043D-16
  0.52861584D-16  0.54504044D-04  0.13311215D-16 -0.47090056D-17 -0.39035160D-04
 -0.10591953D-05 -0.10591953D-05  0.21183906D-05 -0.51716451D-16  0.68810941D-17
  0.18184322D-15  0.14854159D-05  0.14854159D-05 -0.29708318D-05  0.17374817D-16
 -0.16885417D-16 -0.22454472D-16 -0.18729818D-17  0.26266989D-17  0.17563488D-05
 -0.18736203D-17  0.26263668D-17 -0.26345232D-05  0.74925657D-17 -0.10506464D-16
 -0.26345232D-05  0.49150713D-18 -0.22961380D-04 -0.42365608D-04 -0.68758119D-04
  0.20777797D-03 -0.33951029D-03  0.18283515D-03 -0.32700271D-15  0.57379696D-15
  0.23330205D-03  0.65811287D-16 -0.14835000D-15 -0.31851177D-03 -0.43391181D-18
  0.16936816D-16  0.28985578D-04  0.21834533D-04  0.21834533D-04 -0.43669067D-04
 -0.13831365D-16 -0.64897275D-15  0.72098339D-15 -0.59532814D-04 -0.59532814D-04
  0.11906563D-03 -0.10254708D-16  0.56732732D-16 -0.56253510D-16 -0.61592747D-18
  0.10009683D-17  0.95778171D-04  0.31199016D-17 -0.64587779D-17 -0.14366726D-03
 -0.12721192D-17  0.34558729D-17 -0.14366726D-03 -0.14942587D-17
END DATA
 TOTAL ENERGY =       -0.499946043945 THE VIRIAL(-V/T)=   2.00003243
