 TITLE
GAUSSIAN              1 MOL ORBITALS     74 PRIMITIVES        2 NUCLEI
  H    1    (CENTRE  1)   0.00000000  0.00000000  0.00000000  CHARGE =  1.0
  H    2    (CENTRE  2)   0.00000000  0.00000000  3.59047964  CHARGE =  0.0
CENTRE ASSIGNMENTS    1  1  1  1  1  1  1  1  1  1  1  1  1  1  1  1  1  1  1  1
CENTRE ASSIGNMENTS    1  1  1  1  1  1  1  1  1  1  1  1  1  1  1  1  1  2  2  2
CENTRE ASSIGNMENTS    2  2  2  2  2  2  2  2  2  2  2  2  2  2  2  2  2  2  2  2
CENTRE ASSIGNMENTS    2  2  2  2  2  2  2  2  2  2  2  2  2  2
TYPE ASSIGNMENTS      1  1  1  1  1  1  2  3  4  2  3  4  2  3  4  5  6  7  8  9
TYPE ASSIGNMENTS     10  5  6  7  8  9 10 11 12 13 17 14 15 18 19 16 20  1  1  1
TYPE ASSIGNMENTS      1  1  1  2  3  4  2  3  4  2  3  4  5  6  7  8  9 10  5  6
TYPE ASSIGNMENTS      7  8  9 10 11 12 13 17 14 15 18 19 16 20
EXPONENTS  0.8264000D+02 0.1241000D+02 0.2824000D+01 0.7977000D+00 0.2581000D+00
EXPONENTS  0.8989000D-01 0.2292000D+01 0.2292000D+01 0.2292000D+01 0.8380000D+00
EXPONENTS  0.8380000D+00 0.8380000D+00 0.2920000D+00 0.2920000D+00 0.2920000D+00
EXPONENTS  0.2062000D+01 0.2062000D+01 0.2062000D+01 0.2062000D+01 0.2062000D+01
EXPONENTS  0.2062000D+01 0.6620000D+00 0.6620000D+00 0.6620000D+00 0.6620000D+00
EXPONENTS  0.6620000D+00 0.6620000D+00 0.1397000D+01 0.1397000D+01 0.1397000D+01
EXPONENTS  0.1397000D+01 0.1397000D+01 0.1397000D+01 0.1397000D+01 0.1397000D+01
EXPONENTS  0.1397000D+01 0.1397000D+01 0.8264000D+02 0.1241000D+02 0.2824000D+01
EXPONENTS  0.7977000D+00 0.2581000D+00 0.8989000D-01 0.2292000D+01 0.2292000D+01
EXPONENTS  0.2292000D+01 0.8380000D+00 0.8380000D+00 0.8380000D+00 0.2920000D+00
EXPONENTS  0.2920000D+00 0.2920000D+00 0.2062000D+01 0.2062000D+01 0.2062000D+01
EXPONENTS  0.2062000D+01 0.2062000D+01 0.2062000D+01 0.6620000D+00 0.6620000D+00
EXPONENTS  0.6620000D+00 0.6620000D+00 0.6620000D+00 0.6620000D+00 0.1397000D+01
EXPONENTS  0.1397000D+01 0.1397000D+01 0.1397000D+01 0.1397000D+01 0.1397000D+01
EXPONENTS  0.1397000D+01 0.1397000D+01 0.1397000D+01 0.1397000D+01
MO    1     MO 0.0        OCC NO =    1.0000000  ORB. ENERGY =   -0.499946
  0.39190970D-01  0.72310519D-01  0.11735782D+00  0.15448946D+00  0.12840906D+00
  0.34574860D-01 -0.39508902D-16  0.85197368D-16 -0.12722276D-04  0.20403490D-16
 -0.74031862D-16  0.22458337D-04 -0.22518583D-16  0.29909973D-16 -0.40526797D-04
  0.11076352D-04  0.11076352D-04 -0.22152704D-04 -0.25028116D-16  0.19628665D-15
 -0.42927899D-15 -0.32683251D-06 -0.32683251D-06  0.65366502D-06  0.56036226D-16
 -0.41451933D-16  0.68964311D-16  0.90670884D-17 -0.16979980D-16 -0.77936972D-06
  0.90670898D-17 -0.16980053D-16  0.11690546D-05 -0.36268355D-16  0.67919994D-16
  0.11690546D-05 -0.31257866D-16 -0.10232128D-04 -0.18879106D-04 -0.30640227D-04
  0.26964932D-03 -0.27393489D-03  0.14450789D-03 -0.23241665D-15 -0.62675358D-15
 -0.18186600D-03  0.79179646D-16  0.14015592D-15  0.30152677D-03  0.49360610D-17
 -0.27498132D-16 -0.15555272D-03  0.91524426D-04  0.91524426D-04 -0.18304885D-03
  0.26375458D-15  0.26650876D-15 -0.11320445D-14  0.74647092D-04  0.74647092D-04
 -0.14929418D-03 -0.22765082D-16 -0.39057613D-16  0.10223928D-15 -0.10564714D-16
  0.37195099D-16  0.56156042D-04 -0.10564714D-16  0.37195103D-16 -0.84234063D-04
  0.42258855D-16 -0.14878040D-15 -0.84234063D-04 -0.88327716D-16
END DATA
 TOTAL ENERGY =       -0.499945970343 THE VIRIAL(-V/T)=   2.00001544
