 TITLE
GAUSSIAN              1 MOL ORBITALS     74 PRIMITIVES        2 NUCLEI
  H    1    (CENTRE  1)   0.00000000  0.00000000  0.00000000  CHARGE =  1.0
  H    2    (CENTRE  2)   0.00000000  0.00000000  1.13383567  CHARGE =  0.0
CENTRE ASSIGNMENTS    1  1  1  1  1  1  1  1  1  1  1  1  1  1  1  1  1  1  1  1
CENTRE ASSIGNMENTS    1  1  1  1  1  1  1  1  1  1  1  1  1  1  1  1  1  2  2  2
CENTRE ASSIGNMENTS    2  2  2  2  2  2  2  2  2  2  2  2  2  2  2  2  2  2  2  2
CENTRE ASSIGNMENTS    2  2  2  2  2  2  2  2  2  2  2  2  2  2
TYPE ASSIGNMENTS      1  1  1  1  1  1  2  3  4  2  3  4  2  3  4  5  6  7  8  9
TYPE ASSIGNMENTS     10  5  6  7  8  9 10 11 12 13 17 14 15 18 19 16 20  1  1  1
TYPE ASSIGNMENTS      1  1  1  2  3  4  2  3  4  2  3  4  5  6  7  8  9 10  5  6
TYPE ASSIGNMENTS      7  8  9 10 11 12 13 17 14 15 18 19 16 20
EXPONENTS  0.8264000D+02 0.1241000D+02 0.2824000D+01 0.7977000D+00 0.2581000D+00
EXPONENTS  0.8989000D-01 0.2292000D+01 0.2292000D+01 0.2292000D+01 0.8380000D+00
EXPONENTS  0.8380000D+00 0.8380000D+00 0.2920000D+00 0.2920000D+00 0.2920000D+00
EXPONENTS  0.2062000D+01 0.2062000D+01 0.2062000D+01 0.2062000D+01 0.2062000D+01
EXPONENTS  0.2062000D+01 0.6620000D+00 0.6620000D+00 0.6620000D+00 0.6620000D+00
EXPONENTS  0.6620000D+00 0.6620000D+00 0.1397000D+01 0.1397000D+01 0.1397000D+01
EXPONENTS  0.1397000D+01 0.1397000D+01 0.1397000D+01 0.1397000D+01 0.1397000D+01
EXPONENTS  0.1397000D+01 0.1397000D+01 0.8264000D+02 0.1241000D+02 0.2824000D+01
EXPONENTS  0.7977000D+00 0.2581000D+00 0.8989000D-01 0.2292000D+01 0.2292000D+01
EXPONENTS  0.2292000D+01 0.8380000D+00 0.8380000D+00 0.8380000D+00 0.2920000D+00
EXPONENTS  0.2920000D+00 0.2920000D+00 0.2062000D+01 0.2062000D+01 0.2062000D+01
EXPONENTS  0.2062000D+01 0.2062000D+01 0.2062000D+01 0.6620000D+00 0.6620000D+00
EXPONENTS  0.6620000D+00 0.6620000D+00 0.6620000D+00 0.6620000D+00 0.1397000D+01
EXPONENTS  0.1397000D+01 0.1397000D+01 0.1397000D+01 0.1397000D+01 0.1397000D+01
EXPONENTS  0.1397000D+01 0.1397000D+01 0.1397000D+01 0.1397000D+01
MO    1     MO 0.0        OCC NO =    1.0000000  ORB. ENERGY =   -0.499946
  0.39212517D-01  0.72350274D-01  0.11742234D+00  0.15054185D+00  0.12642267D+00
  0.34703815D-01 -0.29317094D-15 -0.10395442D-14 -0.23615012D-02 -0.87415381D-15
 -0.41216647D-15 -0.45464477D-02 -0.11135627D-15 -0.83147039D-16 -0.86847620D-03
  0.17234176D-02  0.17234176D-02 -0.34468353D-02  0.72446127D-15 -0.11781416D-14
 -0.20974932D-14  0.56701293D-03  0.56701293D-03 -0.11340259D-02  0.17720714D-16
 -0.60676145D-15 -0.20580445D-15  0.93347479D-16  0.10897978D-16 -0.94453660D-03
  0.11469415D-15  0.62596687D-16  0.14168049D-02 -0.39473659D-15 -0.95290621D-16
  0.14168049D-02  0.52641893D-15 -0.10652306D-04 -0.19654368D-04 -0.31898453D-04
  0.49056497D-02  0.17135674D-02 -0.36659507D-04 -0.41254662D-15 -0.12818656D-15
 -0.30647909D-02  0.91828149D-15  0.52444057D-15 -0.37884253D-02  0.10239327D-15
  0.58619458D-16 -0.50400411D-03 -0.20552207D-02 -0.20552207D-02  0.41104415D-02
 -0.77394899D-15 -0.17133952D-14 -0.28776290D-14 -0.15568391D-03 -0.15568391D-03
  0.31136781D-03 -0.13361079D-16 -0.66777514D-15 -0.35620740D-15 -0.33296001D-15
 -0.47944467D-15 -0.79013476D-03 -0.36743247D-15 -0.44446355D-15  0.11852021D-02
  0.13663125D-14  0.18827976D-14  0.11852021D-02  0.60029400D-15
END DATA
 TOTAL ENERGY =       -0.499946215763 THE VIRIAL(-V/T)=   2.00000288
