 TITLE
GAUSSIAN              1 MOL ORBITALS     74 PRIMITIVES        2 NUCLEI
  H    1    (CENTRE  1)   0.00000000  0.00000000  0.00000000  CHARGE =  1.0
  H    2    (CENTRE  2)   0.00000000  0.00000000 11.52732936  CHARGE =  0.0
CENTRE ASSIGNMENTS    1  1  1  1  1  1  1  1  1  1  1  1  1  1  1  1  1  1  1  1
CENTRE ASSIGNMENTS    1  1  1  1  1  1  1  1  1  1  1  1  1  1  1  1  1  2  2  2
CENTRE ASSIGNMENTS    2  2  2  2  2  2  2  2  2  2  2  2  2  2  2  2  2  2  2  2
CENTRE ASSIGNMENTS    2  2  2  2  2  2  2  2  2  2  2  2  2  2
TYPE ASSIGNMENTS      1  1  1  1  1  1  2  3  4  2  3  4  2  3  4  5  6  7  8  9
TYPE ASSIGNMENTS     10  5  6  7  8  9 10 11 12 13 17 14 15 18 19 16 20  1  1  1
TYPE ASSIGNMENTS      1  1  1  2  3  4  2  3  4  2  3  4  5  6  7  8  9 10  5  6
TYPE ASSIGNMENTS      7  8  9 10 11 12 13 17 14 15 18 19 16 20
EXPONENTS  0.8264000D+02 0.1241000D+02 0.2824000D+01 0.7977000D+00 0.2581000D+00
EXPONENTS  0.8989000D-01 0.2292000D+01 0.2292000D+01 0.2292000D+01 0.8380000D+00
EXPONENTS  0.8380000D+00 0.8380000D+00 0.2920000D+00 0.2920000D+00 0.2920000D+00
EXPONENTS  0.2062000D+01 0.2062000D+01 0.2062000D+01 0.2062000D+01 0.2062000D+01
EXPONENTS  0.2062000D+01 0.6620000D+00 0.6620000D+00 0.6620000D+00 0.6620000D+00
EXPONENTS  0.6620000D+00 0.6620000D+00 0.1397000D+01 0.1397000D+01 0.1397000D+01
EXPONENTS  0.1397000D+01 0.1397000D+01 0.1397000D+01 0.1397000D+01 0.1397000D+01
EXPONENTS  0.1397000D+01 0.1397000D+01 0.8264000D+02 0.1241000D+02 0.2824000D+01
EXPONENTS  0.7977000D+00 0.2581000D+00 0.8989000D-01 0.2292000D+01 0.2292000D+01
EXPONENTS  0.2292000D+01 0.8380000D+00 0.8380000D+00 0.8380000D+00 0.2920000D+00
EXPONENTS  0.2920000D+00 0.2920000D+00 0.2062000D+01 0.2062000D+01 0.2062000D+01
EXPONENTS  0.2062000D+01 0.2062000D+01 0.2062000D+01 0.6620000D+00 0.6620000D+00
EXPONENTS  0.6620000D+00 0.6620000D+00 0.6620000D+00 0.6620000D+00 0.1397000D+01
EXPONENTS  0.1397000D+01 0.1397000D+01 0.1397000D+01 0.1397000D+01 0.1397000D+01
EXPONENTS  0.1397000D+01 0.1397000D+01 0.1397000D+01 0.1397000D+01
MO    1     MO 0.0        OCC NO =    1.0000000  ORB. ENERGY =   -0.499946
  0.39186788D-01  0.72302802D-01  0.11734529D+00  0.15452882D+00  0.12836002D+00
  0.34648108D-01 -0.75935993D-16 -0.54733358D-17  0.91724774D-07  0.44115580D-16
 -0.19847358D-17 -0.96728096D-07 -0.92296646D-17 -0.31276405D-17  0.61860124D-07
  0.89142889D-08  0.89142889D-08 -0.17828578D-07 -0.26050992D-16 -0.15786314D-16
 -0.18698076D-16 -0.50742716D-08 -0.50742716D-08  0.10148543D-07  0.47967545D-17
  0.19748722D-17  0.14492875D-18 -0.57305734D-22 -0.30632678D-21  0.16369500D-08
 -0.60121710D-22 -0.30940616D-21 -0.24554250D-08  0.23203891D-21  0.12283865D-20
 -0.24554250D-08 -0.74352515D-22 -0.64871210D-05 -0.11969264D-04 -0.19425759D-04
  0.70774520D-04 -0.10262288D-03  0.58686923D-04 -0.23789818D-15 -0.32519474D-15
 -0.34718576D-04  0.26403152D-16  0.76688500D-16  0.38393134D-04  0.38350752D-17
 -0.38150248D-17 -0.19306621D-04  0.34496700D-05  0.34496700D-05 -0.68993400D-05
  0.61399106D-17  0.26141385D-15  0.96999799D-16 -0.17280057D-05 -0.17280057D-05
  0.34560114D-05 -0.46023149D-18 -0.17122221D-16 -0.65684187D-17 -0.82248596D-19
 -0.12199009D-19 -0.53432914D-06  0.10343768D-18 -0.19130806D-19  0.80149371D-06
  0.14330811D-18  0.55727832D-19  0.80149371D-06 -0.22603400D-19
END DATA
 TOTAL ENERGY =       -0.499945617767 THE VIRIAL(-V/T)=   2.00000342
