 TITLE
GAUSSIAN              1 MOL ORBITALS     74 PRIMITIVES        2 NUCLEI
  H    1    (CENTRE  1)   0.00000000  0.00000000  0.00000000  CHARGE =  1.0
  H    2    (CENTRE  2)   0.00000000  0.00000000 13.22808287  CHARGE =  0.0
CENTRE ASSIGNMENTS    1  1  1  1  1  1  1  1  1  1  1  1  1  1  1  1  1  1  1  1
CENTRE ASSIGNMENTS    1  1  1  1  1  1  1  1  1  1  1  1  1  1  1  1  1  2  2  2
CENTRE ASSIGNMENTS    2  2  2  2  2  2  2  2  2  2  2  2  2  2  2  2  2  2  2  2
CENTRE ASSIGNMENTS    2  2  2  2  2  2  2  2  2  2  2  2  2  2
TYPE ASSIGNMENTS      1  1  1  1  1  1  2  3  4  2  3  4  2  3  4  5  6  7  8  9
TYPE ASSIGNMENTS     10  5  6  7  8  9 10 11 12 13 17 14 15 18 19 16 20  1  1  1
TYPE ASSIGNMENTS      1  1  1  2  3  4  2  3  4  2  3  4  5  6  7  8  9 10  5  6
TYPE ASSIGNMENTS      7  8  9 10 11 12 13 17 14 15 18 19 16 20
EXPONENTS  0.8264000D+02 0.1241000D+02 0.2824000D+01 0.7977000D+00 0.2581000D+00
EXPONENTS  0.8989000D-01 0.2292000D+01 0.2292000D+01 0.2292000D+01 0.8380000D+00
EXPONENTS  0.8380000D+00 0.8380000D+00 0.2920000D+00 0.2920000D+00 0.2920000D+00
EXPONENTS  0.2062000D+01 0.2062000D+01 0.2062000D+01 0.2062000D+01 0.2062000D+01
EXPONENTS  0.2062000D+01 0.6620000D+00 0.6620000D+00 0.6620000D+00 0.6620000D+00
EXPONENTS  0.6620000D+00 0.6620000D+00 0.1397000D+01 0.1397000D+01 0.1397000D+01
EXPONENTS  0.1397000D+01 0.1397000D+01 0.1397000D+01 0.1397000D+01 0.1397000D+01
EXPONENTS  0.1397000D+01 0.1397000D+01 0.8264000D+02 0.1241000D+02 0.2824000D+01
EXPONENTS  0.7977000D+00 0.2581000D+00 0.8989000D-01 0.2292000D+01 0.2292000D+01
EXPONENTS  0.2292000D+01 0.8380000D+00 0.8380000D+00 0.8380000D+00 0.2920000D+00
EXPONENTS  0.2920000D+00 0.2920000D+00 0.2062000D+01 0.2062000D+01 0.2062000D+01
EXPONENTS  0.2062000D+01 0.2062000D+01 0.2062000D+01 0.6620000D+00 0.6620000D+00
EXPONENTS  0.6620000D+00 0.6620000D+00 0.6620000D+00 0.6620000D+00 0.1397000D+01
EXPONENTS  0.1397000D+01 0.1397000D+01 0.1397000D+01 0.1397000D+01 0.1397000D+01
EXPONENTS  0.1397000D+01 0.1397000D+01 0.1397000D+01 0.1397000D+01
MO    1     MO 0.0        OCC NO =    1.0000000  ORB. ENERGY =   -0.499946
  0.39186806D-01  0.72302836D-01  0.11734535D+00  0.15452891D+00  0.12836010D+00
  0.34648106D-01 -0.26486058D-16  0.15857764D-15  0.29365075D-08  0.21139581D-16
 -0.12127854D-15 -0.30877494D-08 -0.71930165D-17  0.35880547D-16  0.18479846D-08
  0.19614606D-09  0.19614606D-09 -0.39229211D-09 -0.39099775D-16  0.28598056D-16
  0.67442059D-17 -0.10722088D-09 -0.10722089D-09  0.21444177D-09  0.19595257D-17
 -0.62130891D-17 -0.33919097D-18 -0.12654902D-22 -0.18357921D-22  0.31353273D-10
 -0.79065152D-23  0.17002681D-22 -0.47029909D-10  0.45871220D-22  0.38071081D-22
 -0.47029909D-10  0.52950511D-22 -0.23101559D-05 -0.42624249D-05 -0.69177886D-05
  0.24582903D-04 -0.33520278D-04  0.17571526D-04  0.22722750D-15 -0.40236400D-15
 -0.42911155D-05 -0.11771949D-16  0.88342117D-16  0.46559639D-05 -0.91582139D-17
 -0.92921974D-17 -0.22245496D-05  0.29018037D-06  0.29018037D-06 -0.58036074D-06
 -0.24818933D-17  0.38368620D-17 -0.12542430D-15 -0.14104948D-06 -0.14104948D-06
  0.28209895D-06  0.34350127D-18 -0.96105617D-18  0.80108906D-17  0.29932404D-19
  0.62567118D-19 -0.40990028D-07 -0.12744589D-18 -0.87174957D-20  0.61485042D-07
  0.37648680D-19 -0.17898386D-18  0.61485042D-07  0.14745856D-19
END DATA
 TOTAL ENERGY =       -0.499945572810 THE VIRIAL(-V/T)=   2.00000169
