 TITLE
GAUSSIAN              1 MOL ORBITALS     74 PRIMITIVES        2 NUCLEI
  H    1    (CENTRE  1)   0.00000000  0.00000000  0.00000000  CHARGE =  1.0
  H    2    (CENTRE  2)   0.00000000  0.00000000  5.85815099  CHARGE =  0.0
CENTRE ASSIGNMENTS    1  1  1  1  1  1  1  1  1  1  1  1  1  1  1  1  1  1  1  1
CENTRE ASSIGNMENTS    1  1  1  1  1  1  1  1  1  1  1  1  1  1  1  1  1  2  2  2
CENTRE ASSIGNMENTS    2  2  2  2  2  2  2  2  2  2  2  2  2  2  2  2  2  2  2  2
CENTRE ASSIGNMENTS    2  2  2  2  2  2  2  2  2  2  2  2  2  2
TYPE ASSIGNMENTS      1  1  1  1  1  1  2  3  4  2  3  4  2  3  4  5  6  7  8  9
TYPE ASSIGNMENTS     10  5  6  7  8  9 10 11 12 13 17 14 15 18 19 16 20  1  1  1
TYPE ASSIGNMENTS      1  1  1  2  3  4  2  3  4  2  3  4  5  6  7  8  9 10  5  6
TYPE ASSIGNMENTS      7  8  9 10 11 12 13 17 14 15 18 19 16 20
EXPONENTS  0.8264000D+02 0.1241000D+02 0.2824000D+01 0.7977000D+00 0.2581000D+00
EXPONENTS  0.8989000D-01 0.2292000D+01 0.2292000D+01 0.2292000D+01 0.8380000D+00
EXPONENTS  0.8380000D+00 0.8380000D+00 0.2920000D+00 0.2920000D+00 0.2920000D+00
EXPONENTS  0.2062000D+01 0.2062000D+01 0.2062000D+01 0.2062000D+01 0.2062000D+01
EXPONENTS  0.2062000D+01 0.6620000D+00 0.6620000D+00 0.6620000D+00 0.6620000D+00
EXPONENTS  0.6620000D+00 0.6620000D+00 0.1397000D+01 0.1397000D+01 0.1397000D+01
EXPONENTS  0.1397000D+01 0.1397000D+01 0.1397000D+01 0.1397000D+01 0.1397000D+01
EXPONENTS  0.1397000D+01 0.1397000D+01 0.8264000D+02 0.1241000D+02 0.2824000D+01
EXPONENTS  0.7977000D+00 0.2581000D+00 0.8989000D-01 0.2292000D+01 0.2292000D+01
EXPONENTS  0.2292000D+01 0.8380000D+00 0.8380000D+00 0.8380000D+00 0.2920000D+00
EXPONENTS  0.2920000D+00 0.2920000D+00 0.2062000D+01 0.2062000D+01 0.2062000D+01
EXPONENTS  0.2062000D+01 0.2062000D+01 0.2062000D+01 0.6620000D+00 0.6620000D+00
EXPONENTS  0.6620000D+00 0.6620000D+00 0.6620000D+00 0.6620000D+00 0.1397000D+01
EXPONENTS  0.1397000D+01 0.1397000D+01 0.1397000D+01 0.1397000D+01 0.1397000D+01
EXPONENTS  0.1397000D+01 0.1397000D+01 0.1397000D+01 0.1397000D+01
MO    1     MO 0.0        OCC NO =    1.0000000  ORB. ENERGY =   -0.499946
  0.39187970D-01  0.72304984D-01  0.11734883D+00  0.15450809D+00  0.12839775D+00
  0.34614613D-01  0.26370328D-16 -0.16651133D-16 -0.39098923D-04 -0.21305006D-16
  0.15671052D-16  0.47155821D-04  0.49405041D-17 -0.49161519D-17 -0.26486742D-04
 -0.77315933D-05 -0.77315933D-05  0.15463187D-04 -0.89544429D-16  0.13106156D-15
  0.67941923D-16  0.39747940D-05  0.39747940D-05 -0.79495880D-05  0.42522790D-17
 -0.23875725D-16  0.38698548D-18 -0.11350260D-18  0.12517118D-18 -0.17127600D-05
 -0.14358296D-18  0.11707629D-18  0.25691400D-05  0.48409076D-18 -0.49258982D-18
  0.25691400D-05 -0.15704000D-20 -0.90774225D-05 -0.16748581D-04 -0.27182447D-04
  0.12773639D-03 -0.26557465D-03  0.17986248D-03 -0.37773023D-15  0.42268269D-15
  0.76650024D-05  0.82988524D-16 -0.10408214D-15 -0.17564290D-04 -0.48870222D-17
  0.11673896D-16  0.12226765D-03  0.35620486D-04  0.35620486D-04 -0.71240972D-04
 -0.54102737D-15  0.27336576D-15 -0.23825881D-15 -0.74659595D-05 -0.74659595D-05
  0.14931919D-04  0.53039086D-16 -0.50320046D-17  0.24253716D-16  0.65608878D-18
  0.11135740D-17 -0.59239963D-04 -0.12826203D-17 -0.36009646D-17  0.88859945D-04
 -0.68564601D-18  0.26024258D-18  0.88859945D-04 -0.14496141D-18
END DATA
 TOTAL ENERGY =       -0.499946141367 THE VIRIAL(-V/T)=   2.00003683
