 TITLE
GAUSSIAN              1 MOL ORBITALS     74 PRIMITIVES        2 NUCLEI
  H    1    (CENTRE  1)   0.00000000  0.00000000  0.00000000  CHARGE =  1.0
  H    2    (CENTRE  2)   0.00000000  0.00000000  8.50376756  CHARGE =  0.0
CENTRE ASSIGNMENTS    1  1  1  1  1  1  1  1  1  1  1  1  1  1  1  1  1  1  1  1
CENTRE ASSIGNMENTS    1  1  1  1  1  1  1  1  1  1  1  1  1  1  1  1  1  2  2  2
CENTRE ASSIGNMENTS    2  2  2  2  2  2  2  2  2  2  2  2  2  2  2  2  2  2  2  2
CENTRE ASSIGNMENTS    2  2  2  2  2  2  2  2  2  2  2  2  2  2
TYPE ASSIGNMENTS      1  1  1  1  1  1  2  3  4  2  3  4  2  3  4  5  6  7  8  9
TYPE ASSIGNMENTS     10  5  6  7  8  9 10 11 12 13 17 14 15 18 19 16 20  1  1  1
TYPE ASSIGNMENTS      1  1  1  2  3  4  2  3  4  2  3  4  5  6  7  8  9 10  5  6
TYPE ASSIGNMENTS      7  8  9 10 11 12 13 17 14 15 18 19 16 20
EXPONENTS  0.8264000D+02 0.1241000D+02 0.2824000D+01 0.7977000D+00 0.2581000D+00
EXPONENTS  0.8989000D-01 0.2292000D+01 0.2292000D+01 0.2292000D+01 0.8380000D+00
EXPONENTS  0.8380000D+00 0.8380000D+00 0.2920000D+00 0.2920000D+00 0.2920000D+00
EXPONENTS  0.2062000D+01 0.2062000D+01 0.2062000D+01 0.2062000D+01 0.2062000D+01
EXPONENTS  0.2062000D+01 0.6620000D+00 0.6620000D+00 0.6620000D+00 0.6620000D+00
EXPONENTS  0.6620000D+00 0.6620000D+00 0.1397000D+01 0.1397000D+01 0.1397000D+01
EXPONENTS  0.1397000D+01 0.1397000D+01 0.1397000D+01 0.1397000D+01 0.1397000D+01
EXPONENTS  0.1397000D+01 0.1397000D+01 0.8264000D+02 0.1241000D+02 0.2824000D+01
EXPONENTS  0.7977000D+00 0.2581000D+00 0.8989000D-01 0.2292000D+01 0.2292000D+01
EXPONENTS  0.2292000D+01 0.8380000D+00 0.8380000D+00 0.8380000D+00 0.2920000D+00
EXPONENTS  0.2920000D+00 0.2920000D+00 0.2062000D+01 0.2062000D+01 0.2062000D+01
EXPONENTS  0.2062000D+01 0.2062000D+01 0.2062000D+01 0.6620000D+00 0.6620000D+00
EXPONENTS  0.6620000D+00 0.6620000D+00 0.6620000D+00 0.6620000D+00 0.1397000D+01
EXPONENTS  0.1397000D+01 0.1397000D+01 0.1397000D+01 0.1397000D+01 0.1397000D+01
EXPONENTS  0.1397000D+01 0.1397000D+01 0.1397000D+01 0.1397000D+01
MO    1     MO 0.0        OCC NO =    1.0000000  ORB. ENERGY =   -0.499946
  0.39187328D-01  0.72303799D-01  0.11734691D+00  0.15451941D+00  0.12837082D+00
  0.34641960D-01  0.14492918D-16  0.13865621D-16  0.13730883D-05 -0.84254419D-17
  0.14827723D-17 -0.13149276D-05 -0.55278130D-17  0.13519858D-17  0.14757494D-05
  0.29396366D-06  0.29396366D-06 -0.58792733D-06  0.20849663D-16 -0.17906300D-15
  0.36687370D-16 -0.20650380D-06 -0.20650380D-06  0.41300759D-06 -0.72806085D-18
  0.15384379D-16 -0.24374592D-17  0.32858703D-20 -0.76677945D-21  0.70192699D-07
  0.33096615D-20 -0.77743474D-21 -0.10528905D-06 -0.13167272D-19  0.30777731D-20
 -0.10528905D-06  0.32223440D-20 -0.39648543D-05 -0.73154778D-05 -0.11872802D-04
  0.44252873D-04 -0.90360191D-04  0.12165668D-03 -0.11276055D-14  0.27011038D-15
 -0.90328462D-04  0.29471966D-15 -0.74909733D-16  0.11504126D-03 -0.25672811D-16
  0.10882690D-16 -0.89776171D-04  0.78617910D-05  0.78617910D-05 -0.15723582D-04
  0.40261115D-16 -0.79061699D-15  0.43906843D-15 -0.55790455D-05 -0.55790455D-05
  0.11158091D-04 -0.17320881D-16  0.48668680D-16 -0.24187237D-16 -0.14582856D-18
 -0.30128030D-18  0.20898642D-05  0.40827470D-18  0.74212975D-18 -0.31347963D-05
  0.29210994D-19  0.16171116D-18 -0.31347963D-05 -0.99150084D-19
END DATA
 TOTAL ENERGY =       -0.499945938255 THE VIRIAL(-V/T)=   2.00002489
