 TITLE
GAUSSIAN              1 MOL ORBITALS     74 PRIMITIVES        2 NUCLEI
  H    1    (CENTRE  1)   0.00000000  0.00000000  0.00000000  CHARGE =  1.0
  H    2    (CENTRE  2)   0.00000000  0.00000000  4.72431531  CHARGE =  0.0
CENTRE ASSIGNMENTS    1  1  1  1  1  1  1  1  1  1  1  1  1  1  1  1  1  1  1  1
CENTRE ASSIGNMENTS    1  1  1  1  1  1  1  1  1  1  1  1  1  1  1  1  1  2  2  2
CENTRE ASSIGNMENTS    2  2  2  2  2  2  2  2  2  2  2  2  2  2  2  2  2  2  2  2
CENTRE ASSIGNMENTS    2  2  2  2  2  2  2  2  2  2  2  2  2  2
TYPE ASSIGNMENTS      1  1  1  1  1  1  2  3  4  2  3  4  2  3  4  5  6  7  8  9
TYPE ASSIGNMENTS     10  5  6  7  8  9 10 11 12 13 17 14 15 18 19 16 20  1  1  1
TYPE ASSIGNMENTS      1  1  1  2  3  4  2  3  4  2  3  4  5  6  7  8  9 10  5  6
TYPE ASSIGNMENTS      7  8  9 10 11 12 13 17 14 15 18 19 16 20
EXPONENTS  0.8264000D+02 0.1241000D+02 0.2824000D+01 0.7977000D+00 0.2581000D+00
EXPONENTS  0.8989000D-01 0.2292000D+01 0.2292000D+01 0.2292000D+01 0.8380000D+00
EXPONENTS  0.8380000D+00 0.8380000D+00 0.2920000D+00 0.2920000D+00 0.2920000D+00
EXPONENTS  0.2062000D+01 0.2062000D+01 0.2062000D+01 0.2062000D+01 0.2062000D+01
EXPONENTS  0.2062000D+01 0.6620000D+00 0.6620000D+00 0.6620000D+00 0.6620000D+00
EXPONENTS  0.6620000D+00 0.6620000D+00 0.1397000D+01 0.1397000D+01 0.1397000D+01
EXPONENTS  0.1397000D+01 0.1397000D+01 0.1397000D+01 0.1397000D+01 0.1397000D+01
EXPONENTS  0.1397000D+01 0.1397000D+01 0.8264000D+02 0.1241000D+02 0.2824000D+01
EXPONENTS  0.7977000D+00 0.2581000D+00 0.8989000D-01 0.2292000D+01 0.2292000D+01
EXPONENTS  0.2292000D+01 0.8380000D+00 0.8380000D+00 0.8380000D+00 0.2920000D+00
EXPONENTS  0.2920000D+00 0.2920000D+00 0.2062000D+01 0.2062000D+01 0.2062000D+01
EXPONENTS  0.2062000D+01 0.2062000D+01 0.2062000D+01 0.6620000D+00 0.6620000D+00
EXPONENTS  0.6620000D+00 0.6620000D+00 0.6620000D+00 0.6620000D+00 0.1397000D+01
EXPONENTS  0.1397000D+01 0.1397000D+01 0.1397000D+01 0.1397000D+01 0.1397000D+01
EXPONENTS  0.1397000D+01 0.1397000D+01 0.1397000D+01 0.1397000D+01
MO    1     MO 0.0        OCC NO =    1.0000000  ORB. ENERGY =   -0.499946
  0.39189084D-01  0.72307039D-01  0.11735217D+00  0.15449786D+00  0.12841143D+00
  0.34592640D-01  0.28550025D-16  0.39121611D-16 -0.47032824D-04 -0.27235558D-16
 -0.41293139D-16  0.57723307D-04  0.83256718D-17  0.21097952D-16 -0.39478661D-04
 -0.30497367D-05 -0.30497367D-05  0.60994735D-05  0.24984339D-16 -0.70180310D-16
 -0.50766720D-16  0.24352010D-05  0.24352010D-05 -0.48704020D-05 -0.15340860D-16
  0.17164953D-16  0.30261502D-17 -0.53517673D-18 -0.12690243D-17  0.64244428D-06
 -0.53402153D-18 -0.12682493D-17 -0.96366642D-06  0.21395517D-17  0.50753223D-17
 -0.96366642D-06 -0.34986013D-18 -0.19382498D-04 -0.35762282D-04 -0.58041117D-04
  0.15849028D-03 -0.32310356D-03  0.18377217D-03 -0.89737157D-16 -0.54026872D-15
  0.26650688D-03  0.23215023D-16  0.14329815D-15 -0.29870866D-03  0.38172112D-17
 -0.14383677D-16  0.46736042D-04  0.75672570D-04  0.75672570D-04 -0.15134514D-03
 -0.25097852D-15 -0.46265263D-15  0.15365211D-15 -0.89508549D-04 -0.89508549D-04
  0.17901710D-03  0.25605276D-16  0.52500093D-16 -0.81332725D-17  0.19444172D-17
 -0.17594716D-17 -0.28176367D-05 -0.54283842D-17  0.58108662D-17  0.42264550D-05
 -0.40486727D-18 -0.53245144D-18  0.42264550D-05 -0.55163152D-18
END DATA
 TOTAL ENERGY =       -0.499946092319 THE VIRIAL(-V/T)=   2.00003368
