 TITLE
GAUSSIAN              1 MOL ORBITALS     74 PRIMITIVES        2 NUCLEI
  H    1    (CENTRE  1)   0.00000000  0.00000000  0.00000000  CHARGE =  1.0
  H    2    (CENTRE  2)   0.00000000  0.00000000  0.75589045  CHARGE =  0.0
CENTRE ASSIGNMENTS    1  1  1  1  1  1  1  1  1  1  1  1  1  1  1  1  1  1  1  1
CENTRE ASSIGNMENTS    1  1  1  1  1  1  1  1  1  1  1  1  1  1  1  1  1  2  2  2
CENTRE ASSIGNMENTS    2  2  2  2  2  2  2  2  2  2  2  2  2  2  2  2  2  2  2  2
CENTRE ASSIGNMENTS    2  2  2  2  2  2  2  2  2  2  2  2  2  2
TYPE ASSIGNMENTS      1  1  1  1  1  1  2  3  4  2  3  4  2  3  4  5  6  7  8  9
TYPE ASSIGNMENTS     10  5  6  7  8  9 10 11 12 13 17 14 15 18 19 16 20  1  1  1
TYPE ASSIGNMENTS      1  1  1  2  3  4  2  3  4  2  3  4  5  6  7  8  9 10  5  6
TYPE ASSIGNMENTS      7  8  9 10 11 12 13 17 14 15 18 19 16 20
EXPONENTS  0.8264000D+02 0.1241000D+02 0.2824000D+01 0.7977000D+00 0.2581000D+00
EXPONENTS  0.8989000D-01 0.2292000D+01 0.2292000D+01 0.2292000D+01 0.8380000D+00
EXPONENTS  0.8380000D+00 0.8380000D+00 0.2920000D+00 0.2920000D+00 0.2920000D+00
EXPONENTS  0.2062000D+01 0.2062000D+01 0.2062000D+01 0.2062000D+01 0.2062000D+01
EXPONENTS  0.2062000D+01 0.6620000D+00 0.6620000D+00 0.6620000D+00 0.6620000D+00
EXPONENTS  0.6620000D+00 0.6620000D+00 0.1397000D+01 0.1397000D+01 0.1397000D+01
EXPONENTS  0.1397000D+01 0.1397000D+01 0.1397000D+01 0.1397000D+01 0.1397000D+01
EXPONENTS  0.1397000D+01 0.1397000D+01 0.8264000D+02 0.1241000D+02 0.2824000D+01
EXPONENTS  0.7977000D+00 0.2581000D+00 0.8989000D-01 0.2292000D+01 0.2292000D+01
EXPONENTS  0.2292000D+01 0.8380000D+00 0.8380000D+00 0.8380000D+00 0.2920000D+00
EXPONENTS  0.2920000D+00 0.2920000D+00 0.2062000D+01 0.2062000D+01 0.2062000D+01
EXPONENTS  0.2062000D+01 0.2062000D+01 0.2062000D+01 0.6620000D+00 0.6620000D+00
EXPONENTS  0.6620000D+00 0.6620000D+00 0.6620000D+00 0.6620000D+00 0.1397000D+01
EXPONENTS  0.1397000D+01 0.1397000D+01 0.1397000D+01 0.1397000D+01 0.1397000D+01
EXPONENTS  0.1397000D+01 0.1397000D+01 0.1397000D+01 0.1397000D+01
MO    1     MO 0.0        OCC NO =    1.0000000  ORB. ENERGY =   -0.499946
  0.39257766D-01  0.72433762D-01  0.11755784D+00  0.16744722D+00  0.12457407D+00
  0.34774399D-01 -0.16742190D-14 -0.45020892D-15  0.76253584D-03  0.53204253D-14
 -0.19133439D-14  0.80547346D-02  0.90965351D-15 -0.42830403D-15 -0.10260627D-02
 -0.38101569D-03 -0.38101569D-03  0.76203137D-03 -0.26842110D-14 -0.12959111D-14
  0.41655047D-15 -0.28329520D-03 -0.28329520D-03  0.56659040D-03 -0.26610289D-15
  0.26740258D-14 -0.10451777D-14 -0.13120622D-15 -0.92592625D-16 -0.19525819D-03
 -0.15162269D-15 -0.63438389D-16  0.29288728D-03  0.54524136D-15  0.34121626D-15
  0.29288728D-03 -0.22802957D-14  0.33680366D-04  0.62143007D-04  0.10085625D-03
 -0.12273473D-01  0.35765274D-02 -0.99520246D-04  0.19801152D-14 -0.79353459D-15
  0.27967715D-03 -0.51708567D-14  0.22447059D-14  0.95912773D-02 -0.93041333D-15
  0.37260134D-15 -0.78973680D-03  0.83984369D-03  0.83984369D-03 -0.16796874D-02
  0.27353527D-14 -0.11352472D-14 -0.20680490D-14  0.53772613D-03  0.53772613D-03
 -0.10754523D-02  0.27603101D-15  0.30420577D-14 -0.11438958D-14  0.38855964D-15
 -0.36042687D-15  0.64090313D-04  0.41773627D-15 -0.39313499D-15 -0.96135469D-04
 -0.15834152D-14  0.14744156D-14 -0.96135469D-04 -0.23735990D-14
END DATA
 TOTAL ENERGY =       -0.499945857730 THE VIRIAL(-V/T)=   2.00000143
