 TITLE
GAUSSIAN              1 MOL ORBITALS     74 PRIMITIVES        2 NUCLEI
  H    1    (CENTRE  1)   0.00000000  0.00000000  0.00000000  CHARGE =  1.0
  H    2    (CENTRE  2)   0.00000000  0.00000000 12.28321981  CHARGE =  0.0
CENTRE ASSIGNMENTS    1  1  1  1  1  1  1  1  1  1  1  1  1  1  1  1  1  1  1  1
CENTRE ASSIGNMENTS    1  1  1  1  1  1  1  1  1  1  1  1  1  1  1  1  1  2  2  2
CENTRE ASSIGNMENTS    2  2  2  2  2  2  2  2  2  2  2  2  2  2  2  2  2  2  2  2
CENTRE ASSIGNMENTS    2  2  2  2  2  2  2  2  2  2  2  2  2  2
TYPE ASSIGNMENTS      1  1  1  1  1  1  2  3  4  2  3  4  2  3  4  5  6  7  8  9
TYPE ASSIGNMENTS     10  5  6  7  8  9 10 11 12 13 17 14 15 18 19 16 20  1  1  1
TYPE ASSIGNMENTS      1  1  1  2  3  4  2  3  4  2  3  4  5  6  7  8  9 10  5  6
TYPE ASSIGNMENTS      7  8  9 10 11 12 13 17 14 15 18 19 16 20
EXPONENTS  0.8264000D+02 0.1241000D+02 0.2824000D+01 0.7977000D+00 0.2581000D+00
EXPONENTS  0.8989000D-01 0.2292000D+01 0.2292000D+01 0.2292000D+01 0.8380000D+00
EXPONENTS  0.8380000D+00 0.8380000D+00 0.2920000D+00 0.2920000D+00 0.2920000D+00
EXPONENTS  0.2062000D+01 0.2062000D+01 0.2062000D+01 0.2062000D+01 0.2062000D+01
EXPONENTS  0.2062000D+01 0.6620000D+00 0.6620000D+00 0.6620000D+00 0.6620000D+00
EXPONENTS  0.6620000D+00 0.6620000D+00 0.1397000D+01 0.1397000D+01 0.1397000D+01
EXPONENTS  0.1397000D+01 0.1397000D+01 0.1397000D+01 0.1397000D+01 0.1397000D+01
EXPONENTS  0.1397000D+01 0.1397000D+01 0.8264000D+02 0.1241000D+02 0.2824000D+01
EXPONENTS  0.7977000D+00 0.2581000D+00 0.8989000D-01 0.2292000D+01 0.2292000D+01
EXPONENTS  0.2292000D+01 0.8380000D+00 0.8380000D+00 0.8380000D+00 0.2920000D+00
EXPONENTS  0.2920000D+00 0.2920000D+00 0.2062000D+01 0.2062000D+01 0.2062000D+01
EXPONENTS  0.2062000D+01 0.2062000D+01 0.2062000D+01 0.6620000D+00 0.6620000D+00
EXPONENTS  0.6620000D+00 0.6620000D+00 0.6620000D+00 0.6620000D+00 0.1397000D+01
EXPONENTS  0.1397000D+01 0.1397000D+01 0.1397000D+01 0.1397000D+01 0.1397000D+01
EXPONENTS  0.1397000D+01 0.1397000D+01 0.1397000D+01 0.1397000D+01
MO    1     MO 0.0        OCC NO =    1.0000000  ORB. ENERGY =   -0.499946
  0.39186799D-01  0.72302822D-01  0.11734532D+00  0.15452890D+00  0.12836005D+00
  0.34648120D-01  0.11766591D-15 -0.15001881D-16  0.22741108D-07 -0.91096925D-16
 -0.70287746D-17 -0.23967924D-07  0.20046759D-16  0.50127729D-17  0.14788254D-07
  0.18774208D-08  0.18774208D-08 -0.37548416D-08 -0.40970046D-16  0.48872360D-16
 -0.19451410D-16 -0.10472737D-08 -0.10472737D-08  0.20945474D-08  0.10084088D-16
 -0.32034992D-17  0.18409362D-17 -0.70910897D-23  0.10605119D-22  0.32518592D-09
 -0.84875146D-23  0.51811927D-23 -0.48777888D-09  0.29760784D-22 -0.36996550D-22
 -0.48777888D-09  0.62417879D-22 -0.44607306D-05 -0.82304097D-05 -0.13357709D-04
  0.47992094D-04 -0.67183302D-04  0.36529959D-04  0.13617232D-15 -0.17098650D-15
 -0.14853922D-04 -0.52273689D-16  0.21589959D-16  0.16266465D-04  0.11880644D-16
  0.13017914D-17 -0.79617937D-05  0.12518033D-05  0.12518033D-05 -0.25036065D-05
 -0.24435485D-15 -0.18559904D-15  0.20985617D-15 -0.61786797D-06 -0.61786797D-06
  0.12357359D-05  0.74138544D-16  0.19128199D-16 -0.21179933D-16  0.58503847D-19
 -0.14172452D-19 -0.18814091D-06 -0.31745691D-19  0.14284565D-18  0.28221137D-06
 -0.14376585D-18 -0.10032829D-18  0.28221137D-06 -0.19243589D-18
END DATA
 TOTAL ENERGY =       -0.499945587050 THE VIRIAL(-V/T)=   2.00000220
