 TITLE
GAUSSIAN              1 MOL ORBITALS     74 PRIMITIVES        2 NUCLEI
  H    1    (CENTRE  1)   0.00000000  0.00000000  0.00000000  CHARGE =  1.0
  H    2    (CENTRE  2)   0.00000000  0.00000000 12.47219242  CHARGE =  0.0
CENTRE ASSIGNMENTS    1  1  1  1  1  1  1  1  1  1  1  1  1  1  1  1  1  1  1  1
CENTRE ASSIGNMENTS    1  1  1  1  1  1  1  1  1  1  1  1  1  1  1  1  1  2  2  2
CENTRE ASSIGNMENTS    2  2  2  2  2  2  2  2  2  2  2  2  2  2  2  2  2  2  2  2
CENTRE ASSIGNMENTS    2  2  2  2  2  2  2  2  2  2  2  2  2  2
TYPE ASSIGNMENTS      1  1  1  1  1  1  2  3  4  2  3  4  2  3  4  5  6  7  8  9
TYPE ASSIGNMENTS     10  5  6  7  8  9 10 11 12 13 17 14 15 18 19 16 20  1  1  1
TYPE ASSIGNMENTS      1  1  1  2  3  4  2  3  4  2  3  4  5  6  7  8  9 10  5  6
TYPE ASSIGNMENTS      7  8  9 10 11 12 13 17 14 15 18 19 16 20
EXPONENTS  0.8264000D+02 0.1241000D+02 0.2824000D+01 0.7977000D+00 0.2581000D+00
EXPONENTS  0.8989000D-01 0.2292000D+01 0.2292000D+01 0.2292000D+01 0.8380000D+00
EXPONENTS  0.8380000D+00 0.8380000D+00 0.2920000D+00 0.2920000D+00 0.2920000D+00
EXPONENTS  0.2062000D+01 0.2062000D+01 0.2062000D+01 0.2062000D+01 0.2062000D+01
EXPONENTS  0.2062000D+01 0.6620000D+00 0.6620000D+00 0.6620000D+00 0.6620000D+00
EXPONENTS  0.6620000D+00 0.6620000D+00 0.1397000D+01 0.1397000D+01 0.1397000D+01
EXPONENTS  0.1397000D+01 0.1397000D+01 0.1397000D+01 0.1397000D+01 0.1397000D+01
EXPONENTS  0.1397000D+01 0.1397000D+01 0.8264000D+02 0.1241000D+02 0.2824000D+01
EXPONENTS  0.7977000D+00 0.2581000D+00 0.8989000D-01 0.2292000D+01 0.2292000D+01
EXPONENTS  0.2292000D+01 0.8380000D+00 0.8380000D+00 0.8380000D+00 0.2920000D+00
EXPONENTS  0.2920000D+00 0.2920000D+00 0.2062000D+01 0.2062000D+01 0.2062000D+01
EXPONENTS  0.2062000D+01 0.2062000D+01 0.2062000D+01 0.6620000D+00 0.6620000D+00
EXPONENTS  0.6620000D+00 0.6620000D+00 0.6620000D+00 0.6620000D+00 0.1397000D+01
EXPONENTS  0.1397000D+01 0.1397000D+01 0.1397000D+01 0.1397000D+01 0.1397000D+01
EXPONENTS  0.1397000D+01 0.1397000D+01 0.1397000D+01 0.1397000D+01
MO    1     MO 0.0        OCC NO =    1.0000000  ORB. ENERGY =   -0.499946
  0.39186801D-01  0.72302826D-01  0.11734533D+00  0.15452891D+00  0.12836006D+00
  0.34648117D-01 -0.38981122D-16  0.72221590D-16  0.15497103D-07  0.20914410D-16
 -0.47701272D-16 -0.16328723D-07 -0.10616401D-16  0.17028638D-16  0.10001587D-07
  0.12272176D-08  0.12272175D-08 -0.24544351D-08  0.28771899D-16 -0.31508425D-16
  0.10580857D-17 -0.68138890D-09 -0.68138889D-09  0.13627778D-08 -0.77150306D-17
  0.43976221D-17 -0.15581752D-18  0.89999779D-24 -0.33572069D-23  0.20935813D-09
  0.19352120D-23  0.16400643D-23 -0.31403719D-09 -0.46352054D-23  0.84315564D-23
 -0.31403719D-09 -0.21872923D-24 -0.39713439D-05 -0.73274515D-05 -0.11892235D-04
  0.42612972D-04 -0.59265808D-04  0.31930765D-04  0.42589751D-16 -0.57351916D-16
 -0.11762369D-04 -0.13934305D-16 -0.34716903D-17  0.12854245D-04  0.44481622D-17
  0.77111286D-17 -0.62568025D-05  0.94989712D-06  0.94989712D-06 -0.18997942D-05
  0.81940323D-17 -0.10687120D-17 -0.27144295D-15 -0.46730665D-06 -0.46730665D-06
  0.93461329D-06 -0.34106938D-17 -0.13285941D-16  0.40730387D-16 -0.22344780D-19
  0.28628329D-19 -0.14128767D-06  0.63055355D-19 -0.11964019D-19  0.21193150D-06
  0.39789868D-20 -0.73920967D-19  0.21193150D-06  0.45394084D-19
END DATA
 TOTAL ENERGY =       -0.499945582637 THE VIRIAL(-V/T)=   2.00000204
