 TITLE
GAUSSIAN              1 MOL ORBITALS     74 PRIMITIVES        2 NUCLEI
  H    1    (CENTRE  1)   0.00000000  0.00000000  0.00000000  CHARGE =  1.0
  H    2    (CENTRE  2)   0.00000000  0.00000000  2.45664396  CHARGE =  0.0
CENTRE ASSIGNMENTS    1  1  1  1  1  1  1  1  1  1  1  1  1  1  1  1  1  1  1  1
CENTRE ASSIGNMENTS    1  1  1  1  1  1  1  1  1  1  1  1  1  1  1  1  1  2  2  2
CENTRE ASSIGNMENTS    2  2  2  2  2  2  2  2  2  2  2  2  2  2  2  2  2  2  2  2
CENTRE ASSIGNMENTS    2  2  2  2  2  2  2  2  2  2  2  2  2  2
TYPE ASSIGNMENTS      1  1  1  1  1  1  2  3  4  2  3  4  2  3  4  5  6  7  8  9
TYPE ASSIGNMENTS     10  5  6  7  8  9 10 11 12 13 17 14 15 18 19 16 20  1  1  1
TYPE ASSIGNMENTS      1  1  1  2  3  4  2  3  4  2  3  4  5  6  7  8  9 10  5  6
TYPE ASSIGNMENTS      7  8  9 10 11 12 13 17 14 15 18 19 16 20
EXPONENTS  0.8264000D+02 0.1241000D+02 0.2824000D+01 0.7977000D+00 0.2581000D+00
EXPONENTS  0.8989000D-01 0.2292000D+01 0.2292000D+01 0.2292000D+01 0.8380000D+00
EXPONENTS  0.8380000D+00 0.8380000D+00 0.2920000D+00 0.2920000D+00 0.2920000D+00
EXPONENTS  0.2062000D+01 0.2062000D+01 0.2062000D+01 0.2062000D+01 0.2062000D+01
EXPONENTS  0.2062000D+01 0.6620000D+00 0.6620000D+00 0.6620000D+00 0.6620000D+00
EXPONENTS  0.6620000D+00 0.6620000D+00 0.1397000D+01 0.1397000D+01 0.1397000D+01
EXPONENTS  0.1397000D+01 0.1397000D+01 0.1397000D+01 0.1397000D+01 0.1397000D+01
EXPONENTS  0.1397000D+01 0.1397000D+01 0.8264000D+02 0.1241000D+02 0.2824000D+01
EXPONENTS  0.7977000D+00 0.2581000D+00 0.8989000D-01 0.2292000D+01 0.2292000D+01
EXPONENTS  0.2292000D+01 0.8380000D+00 0.8380000D+00 0.8380000D+00 0.2920000D+00
EXPONENTS  0.2920000D+00 0.2920000D+00 0.2062000D+01 0.2062000D+01 0.2062000D+01
EXPONENTS  0.2062000D+01 0.2062000D+01 0.2062000D+01 0.6620000D+00 0.6620000D+00
EXPONENTS  0.6620000D+00 0.6620000D+00 0.6620000D+00 0.6620000D+00 0.1397000D+01
EXPONENTS  0.1397000D+01 0.1397000D+01 0.1397000D+01 0.1397000D+01 0.1397000D+01
EXPONENTS  0.1397000D+01 0.1397000D+01 0.1397000D+01 0.1397000D+01
MO    1     MO 0.0        OCC NO =    1.0000000  ORB. ENERGY =   -0.499946
  0.39184715D-01  0.72298978D-01  0.11733908D+00  0.15460617D+00  0.12811059D+00
  0.34631031D-01  0.12115802D-15  0.71568683D-16  0.47466034D-04 -0.10185556D-15
 -0.38828699D-17 -0.36380380D-04 -0.62934358D-17 -0.21556258D-16 -0.22979579D-03
 -0.10029965D-03 -0.10029965D-03  0.20059931D-03  0.33147912D-17 -0.10280107D-15
  0.15376876D-15  0.88424012D-04  0.88424012D-04 -0.17684802D-03  0.13265962D-16
 -0.28913952D-17 -0.17113416D-16 -0.48040240D-18  0.13632555D-16 -0.39843877D-04
 -0.34224919D-17  0.12696789D-16  0.59765816D-04  0.48636991D-17 -0.53594453D-16
  0.59765816D-04 -0.10685131D-15 -0.42774942D-05 -0.78923238D-05 -0.12809006D-04
 -0.16676919D-03  0.30273901D-03  0.82039213D-05  0.17372558D-15  0.15923297D-15
 -0.64666231D-03 -0.83962262D-16 -0.29503298D-16  0.20309906D-03  0.17296468D-17
 -0.28927548D-17 -0.25041766D-03 -0.11031970D-03 -0.11031970D-03  0.22063940D-03
 -0.15414499D-15 -0.48222849D-15  0.47942881D-15 -0.12606066D-03 -0.12606066D-03
  0.25212133D-03  0.17009774D-16  0.34780814D-16 -0.53961189D-16  0.38882983D-18
 -0.28942662D-16  0.18081981D-03  0.57193572D-17 -0.29892566D-16 -0.27122972D-03
 -0.68858467D-17  0.11672055D-15 -0.27122972D-03 -0.88381760D-16
END DATA
 TOTAL ENERGY =       -0.499945848313 THE VIRIAL(-V/T)=   1.99999879
