 TITLE
GAUSSIAN              1 MOL ORBITALS     37 PRIMITIVES        1 NUCLEI
  H    1    (CENTRE  1)   0.00000000  0.00000000  0.00000000  CHARGE =  1.0
CENTRE ASSIGNMENTS    1  1  1  1  1  1  1  1  1  1  1  1  1  1  1  1  1  1  1  1
CENTRE ASSIGNMENTS    1  1  1  1  1  1  1  1  1  1  1  1  1  1  1  1  1
TYPE ASSIGNMENTS      1  1  1  1  1  1  2  3  4  2  3  4  2  3  4  5  6  7  8  9
TYPE ASSIGNMENTS     10  5  6  7  8  9 10 11 12 13 17 14 15 18 19 16 20
EXPONENTS  0.8264000D+02 0.1241000D+02 0.2824000D+01 0.7977000D+00 0.2581000D+00
EXPONENTS  0.8989000D-01 0.2292000D+01 0.2292000D+01 0.2292000D+01 0.8380000D+00
EXPONENTS  0.8380000D+00 0.8380000D+00 0.2920000D+00 0.2920000D+00 0.2920000D+00
EXPONENTS  0.2062000D+01 0.2062000D+01 0.2062000D+01 0.2062000D+01 0.2062000D+01
EXPONENTS  0.2062000D+01 0.6620000D+00 0.6620000D+00 0.6620000D+00 0.6620000D+00
EXPONENTS  0.6620000D+00 0.6620000D+00 0.1397000D+01 0.1397000D+01 0.1397000D+01
EXPONENTS  0.1397000D+01 0.1397000D+01 0.1397000D+01 0.1397000D+01 0.1397000D+01
EXPONENTS  0.1397000D+01 0.1397000D+01
MO    1     MO 0.0        OCC NO =    1.0000000  ORB. ENERGY =   -0.499946
  0.39186809D-01  0.72302840D-01  0.11734535D+00  0.15452891D+00  0.12836012D+00
  0.34648098D-01 -0.64050452D-15  0.35092249D-15 -0.15460555D-14  0.38711152D-15
  0.41084576D-15  0.44912708D-15 -0.20744246D-15 -0.12433640D-16  0.95721728D-16
 -0.41742513D-15  0.64996488D-15 -0.23253975D-15  0.88809309D-15 -0.58358240D-18
 -0.13394885D-15  0.37237505D-16 -0.32330642D-16 -0.49068629D-17 -0.97081580D-16
 -0.33908550D-16  0.19596702D-16  0.15159148D-15 -0.16475670D-15  0.83586936D-16
 -0.66980739D-16  0.22541195D-15  0.17858283D-15 -0.38779369D-15  0.26885816D-15
 -0.42934364D-15 -0.75595028D-17
END DATA
 TOTAL ENERGY =       -0.499945568583 THE VIRIAL(-V/T)=   2.00000156
